
     Program PWSCF v.6.5 starts on  7Oct2024 at 13:42: 6 

     This program is part of the open-source Quantum ESPRESSO suite
     for quantum simulation of materials; please cite
         "P. Giannozzi et al., J. Phys.:Condens. Matter 21 395502 (2009);
         "P. Giannozzi et al., J. Phys.:Condens. Matter 29 465901 (2017);
          URL http://www.quantum-espresso.org", 
     in publications or presentations arising from this work. More details at
     http://www.quantum-espresso.org/quote

     Parallel version (MPI & OpenMP), running on     256 processor cores
     Number of MPI processes:               256
     Threads/MPI process:                     1

     MPI processes distributed on     4 nodes
     R & G space division:  proc/nbgrp/npool/nimage =     256
     Reading input from MgAl2Cu_nscf.in
Warning: card &IONS ignored
Warning: card / ignored

     Current dimensions of program PWSCF are:
     Max number of different atomic species (ntypx) = 10
     Max number of k-points (npk) =  40000
     Max angular momentum in pseudopotentials (lmaxx) =  3

     Atomic positions and unit cell read from directory:
     /MgAl2Cu_2x1_C6H5N3_final/scf_pdos.save/                                                                                                                                                                                              

               file Al.pbe-n-kjpaw_psl.1.0.0.UPF: wavefunction(s)  3S 3P renormalized
               file Cu.paw.z_11.ld1.psl.v1.0.0-low.upf: wavefunction(s)  4S 3D renormalized
               file Mg.pbe-n-kjpaw_psl.0.3.0.UPF: wavefunction(s)  3S renormalized
               file C.pbe-n-kjpaw_psl.1.0.0.UPF: wavefunction(s)  2S 2P renormalized

     gamma-point specific algorithms are used

     Subspace diagonalization in iterative solution of the eigenvalue problem:
     one sub-group per band group will be used
     scalapack distributed-memory algorithm (size of sub-group: 16* 16 procs)


     Parallelization info
     --------------------
     sticks:   dense  smooth     PW     G-vecs:    dense   smooth      PW
     Min          58      28      6                23850     8376     994
     Max          60      30      8                23924     8518    1112
     Sum       15037    7523   1885              6114803  2162177  270331


     Title: 
     MgAl2Cu_2x1_C6H5N3_Al_nscf                                                 


     bravais-lattice index     =            8
     lattice parameter (alat)  =      15.0542  a.u.
     unit-cell volume          =   18741.9088 (a.u.)^3
     number of atoms/cell      =           60
     number of atomic types    =            6
     number of electrons       =       240.00
     number of Kohn-Sham states=          160
     kinetic-energy cutoff     =      90.0000  Ry
     charge density cutoff     =     720.0000  Ry
     Exchange-correlation= PBE
                           (   1   4   3   4   0   0   0)

     celldm(1)=  15.054220  celldm(2)=   1.156500  celldm(3)=   4.750000
     celldm(4)=   0.000000  celldm(5)=   0.000000  celldm(6)=   0.000000

     crystal axes: (cart. coord. in units of alat)
               a(1) = (   1.000000   0.000000   0.000000 )  
               a(2) = (   0.000000   1.156500   0.000000 )  
               a(3) = (   0.000000   0.000000   4.750000 )  

     reciprocal axes: (cart. coord. in units 2 pi/alat)
               b(1) = (  1.000000  0.000000  0.000000 )  
               b(2) = (  0.000000  0.864678  0.000000 )  
               b(3) = (  0.000000  0.000000  0.210526 )  


     PseudoPot. # 1 for Al read from file:
     /pseudo/Al.pbe-n-kjpaw_psl.1.0.0.UPF
     MD5 check sum: cfc449ca30b5f3223ec38ddd88ac046d
     Pseudo is Projector augmented-wave + core cor, Zval =  3.0
     Generated using "atomic" code by A. Dal Corso v.5.1
     Shape of augmentation charge: PSQ
     Using radial grid of 1135 points,  6 beta functions with: 
                l(1) =   0
                l(2) =   0
                l(3) =   1
                l(4) =   1
                l(5) =   2
                l(6) =   2
     Q(r) pseudized with 0 coefficients 


     PseudoPot. # 2 for Cu read from file:
     /pseudo/Cu.paw.z_11.ld1.psl.v1.0.0-low.upf
     MD5 check sum: 619f40885d92a09a85a8b37550532d0c
     Pseudo is Projector augmented-wave + core cor, Zval = 11.0
     Generated using "atomic" code by A. Dal Corso v.6.3MaX
     Shape of augmentation charge: PSQ
     Using radial grid of 1199 points,  6 beta functions with: 
                l(1) =   0
                l(2) =   0
                l(3) =   1
                l(4) =   1
                l(5) =   2
                l(6) =   2
     Q(r) pseudized with 0 coefficients 


     PseudoPot. # 3 for Mg read from file:
     /pseudo/Mg.pbe-n-kjpaw_psl.0.3.0.UPF
     MD5 check sum: 24ecedc7f3e3cbe212e682f4413594e4
     Pseudo is Projector augmented-wave + core cor, Zval =  2.0
     Generated using "atomic" code by A. Dal Corso v.5.0.99 svn rev. 10869
     Shape of augmentation charge: PSQ
     Using radial grid of 1129 points,  4 beta functions with: 
                l(1) =   0
                l(2) =   0
                l(3) =   1
                l(4) =   1
     Q(r) pseudized with 0 coefficients 


     PseudoPot. # 4 for C  read from file:
     /pseudo/C.pbe-n-kjpaw_psl.1.0.0.UPF
     MD5 check sum: 5d2aebdfa2cae82b50a7e79e9516da0f
     Pseudo is Projector augmented-wave + core cor, Zval =  4.0
     Generated using "atomic" code by A. Dal Corso v.5.1
     Shape of augmentation charge: PSQ
     Using radial grid of 1073 points,  4 beta functions with: 
                l(1) =   0
                l(2) =   0
                l(3) =   1
                l(4) =   1
     Q(r) pseudized with 0 coefficients 


     PseudoPot. # 5 for N  read from file:
     /pseudo/N.pbe-n-radius_5.UPF
     MD5 check sum: 16739722b17309cd8fe442a2ace49922
     Pseudo is Ultrasoft + core correction, Zval =  5.0
     Generated using "atomic" code by A. Dal Corso v.5.1
     Using radial grid of 1085 points,  4 beta functions with: 
                l(1) =   0
                l(2) =   0
                l(3) =   1
                l(4) =   1
     Q(r) pseudized with 0 coefficients 


     PseudoPot. # 6 for H  read from file:
     /pseudo/H.pbe-rrkjus_psl.1.0.0.UPF
     MD5 check sum: f52b6d4d1c606e5624b1dc7b2218f220
     Pseudo is Ultrasoft, Zval =  1.0
     Generated using "atomic" code by A. Dal Corso v.5.1
     Using radial grid of  929 points,  2 beta functions with: 
                l(1) =   0
                l(2) =   0
     Q(r) pseudized with 0 coefficients 


     atomic species   valence    mass     pseudopotential
        Al             3.00    26.98000     Al( 1.00)
        Cu            11.00    63.55000     Cu( 1.00)
        Mg             2.00    24.31000     Mg( 1.00)
        C              4.00    12.01100     C ( 1.00)
        N              5.00    14.00700     N ( 1.00)
        H              1.00     1.00800     H ( 1.00)

     No symmetry found


                                    s                        frac. trans.

      isym =  1     identity                                     

 cryst.   s( 1) = (     1          0          0      )
                  (     0          1          0      )
                  (     0          0          1      )

 cart.    s( 1) = (  1.0000000  0.0000000  0.0000000 )
                  (  0.0000000  1.0000000  0.0000000 )
                  (  0.0000000  0.0000000  1.0000000 )


     point group C_1 (1)    
     there are  1 classes
     the character table:

       E    
A      1.00

     the symmetry operations in each class and the name of the first element:

     E        1
          identity                                               

   Cartesian axes

     site n.     atom                  positions (alat units)
         1           H   tau(   1) = (   0.6099630   0.5347033   1.3204708  )
         2           H   tau(   2) = (   0.4079099   0.3001930   1.3207997  )
         3           C   tau(   3) = (   0.5664536   0.4851577   1.2007616  )
         4           C   tau(   4) = (   0.4506093   0.3508650   1.2008888  )
         5           H   tau(   5) = (   0.7173930   0.6589045   1.0544888  )
         6           C   tau(   6) = (   0.6272821   0.5559215   1.0524681  )
         7           C   tau(   7) = (   0.3903446   0.2821000   1.0524781  )
         8           H   tau(   8) = (   0.3009486   0.1787739   1.0509634  )
         9           C   tau(   9) = (   0.5668457   0.4866414   0.9027596  )
        10           C   tau(  10) = (   0.4493595   0.3517223   0.9010999  )
        11           N   tau(  11) = (   0.5949710   0.5189341   0.7369906  )
        12           N   tau(  12) = (   0.4123848   0.3106042   0.7389972  )
        13           H   tau(  13) = (   0.6658998   0.6081606   0.6782425  )
        14           N   tau(  14) = (   0.5000829   0.4115127   0.6414327  )
        15           Al  tau(  15) = (   0.2516779   0.9719687   0.3740839  )
        16           Al  tau(  16) = (   0.7482074   0.9638910   0.3771161  )
        17           Al  tau(  17) = (  -0.0005879   0.3906308   0.3751941  )
        18           Al  tau(  18) = (   0.4987768   0.3817535   0.3929928  )
        19           Mg  tau(  19) = (   0.7493771   0.6435619   0.2318899  )
        20           Mg  tau(  20) = (   0.2498396   0.6446246   0.2354190  )
        21           Mg  tau(  21) = (  -0.0025956   0.0684280   0.2339675  )
        22           Mg  tau(  22) = (   0.5012229   0.0669045   0.2365088  )
        23           Cu  tau(  23) = (   0.4993572   0.8872473   0.2322607  )
        24           Cu  tau(  24) = (   0.0003804   0.8953477   0.2291321  )
        25           Cu  tau(  25) = (   0.2525775   0.3133224   0.2319142  )
        26           Cu  tau(  26) = (   0.7458676   0.3146327   0.2301882  )
        27           Al  tau(  27) = (   0.7470827   0.9891480   0.0475244  )
        28           Al  tau(  28) = (   0.2519616   0.9892538   0.0447145  )
        29           Al  tau(  29) = (   0.0009173   0.4119666   0.0469863  )
        30           Al  tau(  30) = (   0.4986682   0.4143908   0.0529768  )
        31           Al  tau(  31) = (   0.4986639   0.7420395  -0.0530339  )
        32           Al  tau(  32) = (   0.0008745   0.7443968  -0.0471988  )
        33           Al  tau(  33) = (   0.2519992   0.1670526  -0.0446293  )
        34           Al  tau(  34) = (   0.7471478   0.1671254  -0.0472814  )
        35           Cu  tau(  35) = (   0.2524138   0.8430499  -0.2318941  )
        36           Cu  tau(  36) = (   0.7458264   0.8417712  -0.2302461  )
        37           Cu  tau(  37) = (   0.0004174   0.2608898  -0.2291488  )
        38           Cu  tau(  38) = (   0.4993830   0.2690472  -0.2320250  )
        39           Mg  tau(  39) = (   0.5011501   1.0894954  -0.2362475  )
        40           Mg  tau(  40) = (  -0.0025602   1.0878714  -0.2339189  )
        41           Mg  tau(  41) = (   0.7493012   0.5127797  -0.2319409  )
        42           Mg  tau(  42) = (   0.2499640   0.5117421  -0.2356527  )
        43           Al  tau(  43) = (   0.4985082   0.7748953  -0.3930305  )
        44           Al  tau(  44) = (  -0.0005966   0.7656496  -0.3754730  )
        45           Al  tau(  45) = (   0.7481414   0.1922970  -0.3768413  )
        46           Al  tau(  46) = (   0.2518154   0.1843942  -0.3740158  )
        47           N   tau(  47) = (   0.5001183   0.7451943  -0.6414400  )
        48           H   tau(  48) = (   0.6807686   0.5621030  -0.6782757  )
        49           N   tau(  49) = (   0.4051360   0.8392667  -0.7390582  )
        50           N   tau(  50) = (   0.6025265   0.6448793  -0.7369862  )
        51           C   tau(  51) = (   0.4450569   0.8008991  -0.9011449  )
        52           C   tau(  52) = (   0.5721600   0.6750056  -0.9027756  )
        53           H   tau(  53) = (   0.2847058   0.9627269  -1.0511375  )
        54           C   tau(  54) = (   0.3812814   0.8660808  -1.0525670  )
        55           C   tau(  55) = (   0.6376093   0.6103172  -1.0524136  )
        56           H   tau(  56) = (   0.7350360   0.5142231  -1.0543576  )
        57           C   tau(  57) = (   0.4465816   0.8019657  -1.2009338  )
        58           C   tau(  58) = (   0.5718941   0.6764688  -1.2007495  )
        59           H   tau(  59) = (   0.4005231   0.8495468  -1.3208684  )
        60           H   tau(  60) = (   0.6190364   0.6302745  -1.3204251  )

   Crystallographic axes

     site n.     atom                  positions (cryst. coord.)
         1           H   tau(   1) = (  0.6099630  0.4623463  0.2779938  )
         2           H   tau(   2) = (  0.4079099  0.2595703  0.2780631  )
         3           C   tau(   3) = (  0.5664536  0.4195053  0.2527919  )
         4           C   tau(   4) = (  0.4506093  0.3033853  0.2528187  )
         5           H   tau(   5) = (  0.7173930  0.5697404  0.2219976  )
         6           C   tau(   6) = (  0.6272821  0.4806932  0.2215722  )
         7           C   tau(   7) = (  0.3903446  0.2439258  0.2215743  )
         8           H   tau(   8) = (  0.3009486  0.1545819  0.2212555  )
         9           C   tau(   9) = (  0.5668457  0.4207882  0.1900547  )
        10           C   tau(  10) = (  0.4493595  0.3041266  0.1897053  )
        11           N   tau(  11) = (  0.5949710  0.4487110  0.1551559  )
        12           N   tau(  12) = (  0.4123848  0.2685727  0.1555783  )
        13           H   tau(  13) = (  0.6658998  0.5258633  0.1427879  )
        14           N   tau(  14) = (  0.5000829  0.3558261  0.1350385  )
        15           Al  tau(  15) = (  0.2516779  0.8404402  0.0787545  )
        16           Al  tau(  16) = (  0.7482074  0.8334556  0.0793929  )
        17           Al  tau(  17) = ( -0.0005879  0.3377700  0.0789882  )
        18           Al  tau(  18) = (  0.4987768  0.3300940  0.0827353  )
        19           Mg  tau(  19) = (  0.7493771  0.5564740  0.0488189  )
        20           Mg  tau(  20) = (  0.2498396  0.5573929  0.0495619  )
        21           Mg  tau(  21) = ( -0.0025956  0.0591682  0.0492563  )
        22           Mg  tau(  22) = (  0.5012229  0.0578508  0.0497913  )
        23           Cu  tau(  23) = (  0.4993572  0.7671835  0.0488970  )
        24           Cu  tau(  24) = (  0.0003804  0.7741877  0.0482383  )
        25           Cu  tau(  25) = (  0.2525775  0.2709231  0.0488240  )
        26           Cu  tau(  26) = (  0.7458676  0.2720561  0.0484607  )
        27           Al  tau(  27) = (  0.7470827  0.8552947  0.0100051  )
        28           Al  tau(  28) = (  0.2519616  0.8553862  0.0094136  )
        29           Al  tau(  29) = (  0.0009173  0.3562186  0.0098918  )
        30           Al  tau(  30) = (  0.4986682  0.3583147  0.0111530  )
        31           Al  tau(  31) = (  0.4986639  0.6416254 -0.0111650  )
        32           Al  tau(  32) = (  0.0008745  0.6436638 -0.0099366  )
        33           Al  tau(  33) = (  0.2519992  0.1444467 -0.0093956  )
        34           Al  tau(  34) = (  0.7471478  0.1445097 -0.0099540  )
        35           Cu  tau(  35) = (  0.2524138  0.7289670 -0.0488198  )
        36           Cu  tau(  36) = (  0.7458264  0.7278612 -0.0484729  )
        37           Cu  tau(  37) = (  0.0004174  0.2255857 -0.0482419  )
        38           Cu  tau(  38) = (  0.4993830  0.2326393 -0.0488474  )
        39           Mg  tau(  39) = (  0.5011501  0.9420630 -0.0497363  )
        40           Mg  tau(  40) = ( -0.0025602  0.9406587 -0.0492461  )
        41           Mg  tau(  41) = (  0.7493012  0.4433895 -0.0488297  )
        42           Mg  tau(  42) = (  0.2499640  0.4424923 -0.0496111  )
        43           Al  tau(  43) = (  0.4985082  0.6700351 -0.0827433  )
        44           Al  tau(  44) = ( -0.0005966  0.6620406 -0.0790469  )
        45           Al  tau(  45) = (  0.7481414  0.1662750 -0.0793350  )
        46           Al  tau(  46) = (  0.2518154  0.1594417 -0.0787402  )
        47           N   tau(  47) = (  0.5001183  0.6443533 -0.1350400  )
        48           H   tau(  48) = (  0.6807686  0.4860382 -0.1427949  )
        49           N   tau(  49) = (  0.4051360  0.7256957 -0.1555912  )
        50           N   tau(  50) = (  0.6025265  0.5576132 -0.1551550  )
        51           C   tau(  51) = (  0.4450569  0.6925200 -0.1897147  )
        52           C   tau(  52) = (  0.5721600  0.5836627 -0.1900580  )
        53           H   tau(  53) = (  0.2847058  0.8324490 -0.2212921  )
        54           C   tau(  54) = (  0.3812814  0.7488812 -0.2215931  )
        55           C   tau(  55) = (  0.6376093  0.5277280 -0.2215608  )
        56           H   tau(  56) = (  0.7350360  0.4446375 -0.2219700  )
        57           C   tau(  57) = (  0.4465816  0.6934423 -0.2528282  )
        58           C   tau(  58) = (  0.5718941  0.5849278 -0.2527894  )
        59           H   tau(  59) = (  0.4005231  0.7345847 -0.2780776  )
        60           H   tau(  60) = (  0.6190364  0.5449846 -0.2779842  )

     number of k points=     1  Methfessel-Paxton smearing, width (Ry)=  0.0500
                       cart. coord. in units 2pi/alat
        k(    1) = (   0.0000000   0.0000000   0.0000000), wk =   2.0000000

                       cryst. coord.
        k(    1) = (   0.0000000   0.0000000   0.0000000), wk =   2.0000000

     Dense  grid:  3057402 G-vectors     FFT dimensions: ( 135, 150, 625)

     Smooth grid:  1081089 G-vectors     FFT dimensions: (  96, 108, 432)

     Dynamical RAM for                 wfc:       1.29 MB

     Dynamical RAM for     wfc (w. buffer):       1.29 MB

     Dynamical RAM for           str. fact:       1.09 MB

     Dynamical RAM for           local pot:       0.00 MB

     Dynamical RAM for          nlocal pot:       5.31 MB

     Dynamical RAM for                qrad:      30.92 MB

     Dynamical RAM for          rho,v,vnew:       1.94 MB

     Dynamical RAM for           G-vectors:       0.72 MB

     Dynamical RAM for          h,s,v(r/c):       0.00 MB

     Dynamical RAM for          <psi|beta>:       0.81 MB

     Dynamical RAM for      wfcinit/wfcrot:       5.45 MB

     Dynamical RAM for           addusdens:      36.80 MB

     Estimated static dynamical RAM per process >      44.85 MB

     Estimated max dynamical RAM per process >      81.65 MB

     Estimated total dynamical RAM >      20.41 GB
     Message from routine read_rhog:
     Conversion: K charge Gamma charge

     The potential is recalculated from file :
     /MgAl2Cu_2x1_C6H5N3_final/scf_pdos.save/charge-density


     negative rho (up, down):  3.726E-04 0.000E+00
     Starting wfcs are  250 randomized atomic wfcs
     Checking if some PAW data can be deallocated... 
       PAW data deallocated on  190 nodes for type:  1
       PAW data deallocated on  224 nodes for type:  2
       PAW data deallocated on  224 nodes for type:  3
       PAW data deallocated on  202 nodes for type:  4

     Band Structure Calculation
     CG style diagonalization

     Computing kpt #:     1  of     1
     c_bands:  6 eigenvalues not converged
     total cpu time spent up to now is      191.8 secs

     ethr =  4.17E-10,  avg # of iterations = 71.5

     total cpu time spent up to now is      191.8 secs

     End of band structure calculation

          k = 0.0000 0.0000 0.0000 (135166 PWs)   bands (ev):

   -25.0727 -25.0712 -20.2864 -20.2855 -19.0041 -19.0025 -16.8737 -16.8728
   -16.1033 -16.1019 -13.7914 -13.7881 -13.3902 -13.3855 -12.9340 -12.9336
   -11.1619 -11.1592 -10.4242 -10.4240  -9.6184  -9.2860  -9.2648  -9.2009
    -9.1809  -8.5777  -8.5194  -8.5167  -8.2498  -8.2486  -8.0806  -7.8595
    -7.5640  -7.5142  -7.4400  -7.2796  -6.5092  -6.4897  -6.4883  -6.4078
    -6.3806  -6.3535  -6.3408  -6.2117  -6.1927  -5.7634  -5.6541  -5.6411
    -5.5487  -5.5321  -5.4548  -5.3910  -5.2984  -4.8821  -4.8164  -4.4978
    -4.4800  -4.4643  -4.4519  -4.4404  -4.4323  -4.3518  -4.3445  -4.3374
    -4.3348  -4.3175  -4.3064  -4.2210  -4.2197  -4.1895  -4.1852  -4.1774
    -4.0760  -4.0640  -4.0570  -4.0425  -4.0309  -4.0029  -3.9941  -3.9811
    -3.9674  -3.9613  -3.9582  -3.9555  -3.9522  -3.9326  -3.9178  -3.8952
    -3.8634  -3.8562  -3.8408  -3.8291  -3.8201  -3.8024  -3.7984  -3.7666
    -3.7240  -3.4423  -3.3972  -3.3886  -3.3365  -3.3279  -2.6006  -2.4254
    -2.3978  -2.3435  -2.3250  -2.2043  -2.0443  -1.9922  -1.3511  -1.0596
    -0.9935  -0.9500  -0.7295  -0.7245  -0.6921  -0.4935  -0.3900  -0.1495
    -0.0427  -0.0135   0.0744   0.1114   0.2858   0.3588   0.3999   0.4084
     0.4898   0.5463   0.6275   1.0076   1.1012   1.3875   1.5382   1.6191
     1.6698   1.7082   1.8513   1.8822   1.9883   2.0319   2.0905   2.1509
     2.2808   2.3921   2.4757   2.5136   2.5449   2.5511   2.5763   2.5828
     2.6525   2.7110   2.7598   2.9000   2.9451   2.9941   3.1179   3.1357

     occupation numbers 
     1.0000   1.0000   1.0000   1.0000   1.0000   1.0000   1.0000   1.0000
     1.0000   1.0000   1.0000   1.0000   1.0000   1.0000   1.0000   1.0000
     1.0000   1.0000   1.0000   1.0000   1.0000   1.0000   1.0000   1.0000
     1.0000   1.0000   1.0000   1.0000   1.0000   1.0000   1.0000   1.0000
     1.0000   1.0000   1.0000   1.0000   1.0000   1.0000   1.0000   1.0000
     1.0000   1.0000   1.0000   1.0000   1.0000   1.0000   1.0000   1.0000
     1.0000   1.0000   1.0000   1.0000   1.0000   1.0000   1.0000   1.0000
     1.0000   1.0000   1.0000   1.0000   1.0000   1.0000   1.0000   1.0000
     1.0000   1.0000   1.0000   1.0000   1.0000   1.0000   1.0000   1.0000
     1.0000   1.0000   1.0000   1.0000   1.0000   1.0000   1.0000   1.0000
     1.0000   1.0000   1.0000   1.0000   1.0000   1.0000   1.0000   1.0000
     1.0000   1.0000   1.0000   1.0000   1.0000   1.0000   1.0000   1.0000
     1.0000   1.0000   1.0000   1.0000   1.0000   1.0000   1.0000   1.0000
     1.0000   1.0000   1.0000   1.0001   1.0004   1.0006   1.0181   1.0350
     1.0352   1.0335   0.9891   0.9872   0.9735   0.8411   0.7397   0.4525
     0.3240   0.2909   0.1991   0.1648   0.0415   0.0091  -0.0046  -0.0071
    -0.0247  -0.0315  -0.0353  -0.0161  -0.0111  -0.0025  -0.0010  -0.0006
    -0.0004  -0.0003  -0.0001  -0.0001  -0.0000  -0.0000  -0.0000  -0.0000
    -0.0000  -0.0000  -0.0000  -0.0000  -0.0000  -0.0000  -0.0000  -0.0000
    -0.0000  -0.0000  -0.0000  -0.0000  -0.0000  -0.0000  -0.0000  -0.0000

     the Fermi energy is    -0.1878 ev

     Writing output data file /MgAl2Cu_2x1_C6H5N3_final/scf_pdos.save/

     init_run     :      3.14s CPU      4.28s WALL (       1 calls)
     electrons    :    183.01s CPU    183.60s WALL (       1 calls)

     Called by init_run:
     wfcinit      :      0.00s CPU      0.07s WALL (       1 calls)
     wfcinit:atom :      0.00s CPU      0.00s WALL (       1 calls)
     wfcinit:wfcr :      1.49s CPU      1.50s WALL (       1 calls)
     potinit      :      0.39s CPU      1.42s WALL (       1 calls)
     hinit0       :      1.53s CPU      1.54s WALL (       1 calls)

     Called by electrons:
     c_bands      :    183.01s CPU    183.59s WALL (       1 calls)
     v_of_rho     :      0.13s CPU      0.14s WALL (       1 calls)
     v_h          :      0.02s CPU      0.02s WALL (       1 calls)
     v_xc         :      0.12s CPU      0.12s WALL (       1 calls)
     newd         :      0.11s CPU      0.13s WALL (       1 calls)
     PAW_pot      :      0.06s CPU      0.06s WALL (       1 calls)

     Called by c_bands:
     init_us_2    :      0.00s CPU      0.00s WALL (       1 calls)
     rcgdiagg     :    176.70s CPU    177.24s WALL (       6 calls)
     wfcrot       :      6.27s CPU      6.29s WALL (       6 calls)

     Called by sum_band:

     Called by *cgdiagg:
     h_psi        :    148.02s CPU    148.35s WALL (   10292 calls)
     s_psi        :      9.20s CPU      9.30s WALL (   20578 calls)
     rdiaghg      :      0.10s CPU      0.10s WALL (       6 calls)
     rdiaghg:chol :      0.00s CPU      0.00s WALL (       6 calls)
     rdiaghg:inve :      0.00s CPU      0.00s WALL (       6 calls)
     rdiaghg:para :      0.01s CPU      0.01s WALL (      12 calls)

     Called by h_psi:
     h_psi:calbec :     13.04s CPU     13.08s WALL (   10292 calls)
     vloc_psi     :    119.48s CPU    119.72s WALL (   10292 calls)
     add_vuspsi   :     15.39s CPU     15.46s WALL (   10292 calls)
     hs_1psi      :    146.74s CPU    147.07s WALL (   10286 calls)
     s_1psi       :     15.21s CPU     15.27s WALL (   10286 calls)

     General routines
     calbec       :     23.35s CPU     23.46s WALL (   20578 calls)
     fft          :      0.29s CPU      0.30s WALL (      11 calls)
     ffts         :      0.01s CPU      0.01s WALL (       1 calls)
     fftw         :    116.62s CPU    116.80s WALL (   21622 calls)
     interpolate  :      0.03s CPU      0.04s WALL (       1 calls)
     davcio       :      0.00s CPU      0.03s WALL (       2 calls)

     Parallel routines
     fft_scatt_xy :      0.64s CPU      0.65s WALL (   21634 calls)
     fft_scatt_yz :    111.83s CPU    112.04s WALL (   21634 calls)

     PAW routines
     PAW_pot      :      0.06s CPU      0.06s WALL (       1 calls)

     PWSCF        :   3m10.00s CPU   3m15.51s WALL


   This run was terminated on:  13:45:22   7Oct2024            

=------------------------------------------------------------------------------=
   JOB DONE.
=------------------------------------------------------------------------------=
