
     Program PWSCF v.6.5 starts on  7Oct2024 at 12:57:41 

     This program is part of the open-source Quantum ESPRESSO suite
     for quantum simulation of materials; please cite
         "P. Giannozzi et al., J. Phys.:Condens. Matter 21 395502 (2009);
         "P. Giannozzi et al., J. Phys.:Condens. Matter 29 465901 (2017);
          URL http://www.quantum-espresso.org", 
     in publications or presentations arising from this work. More details at
     http://www.quantum-espresso.org/quote

     Parallel version (MPI & OpenMP), running on     256 processor cores
     Number of MPI processes:               256
     Threads/MPI process:                     1

     MPI processes distributed on     4 nodes
     R & G space division:  proc/nbgrp/npool/nimage =     256
     Reading input from MgAl2Cu_2x1_C6H5N3_Al_scf_pdos.in
Warning: card &IONS ignored
Warning: card / ignored

     Current dimensions of program PWSCF are:
     Max number of different atomic species (ntypx) = 10
     Max number of k-points (npk) =  40000
     Max angular momentum in pseudopotentials (lmaxx) =  3
               file Al.pbe-n-kjpaw_psl.1.0.0.UPF: wavefunction(s)  3S 3P renormalized
               file Cu.paw.z_11.ld1.psl.v1.0.0-low.upf: wavefunction(s)  4S 3D renormalized
               file Mg.pbe-n-kjpaw_psl.0.3.0.UPF: wavefunction(s)  3S renormalized
               file C.pbe-n-kjpaw_psl.1.0.0.UPF: wavefunction(s)  2S 2P renormalized

     Subspace diagonalization in iterative solution of the eigenvalue problem:
     one sub-group per band group will be used
     scalapack distributed-memory algorithm (size of sub-group: 16* 16 procs)


     Parallelization info
     --------------------
     sticks:   dense  smooth     PW     G-vecs:    dense   smooth      PW
     Min          58      29      7                23863     8431    1111
     Max          59      30      8                23903     8466    1156
     Sum       15037    7523   1971              6114803  2162177  290563


     Title: 
     MgAl2Cu_2x1_C6H5N3_Al_scf_pdos                                             


     bravais-lattice index     =            8
     lattice parameter (alat)  =      15.0542  a.u.
     unit-cell volume          =   18741.9088 (a.u.)^3
     number of atoms/cell      =           60
     number of atomic types    =            6
     number of electrons       =       240.00
     number of Kohn-Sham states=          160
     kinetic-energy cutoff     =      90.0000  Ry
     charge density cutoff     =     720.0000  Ry
     convergence threshold     =      1.0E-06
     mixing beta               =       0.7000
     number of iterations used =            8  plain     mixing
     Exchange-correlation= PBE
                           (   1   4   3   4   0   0   0)

     celldm(1)=  15.054220  celldm(2)=   1.156500  celldm(3)=   4.750000
     celldm(4)=   0.000000  celldm(5)=   0.000000  celldm(6)=   0.000000

     crystal axes: (cart. coord. in units of alat)
               a(1) = (   1.000000   0.000000   0.000000 )  
               a(2) = (   0.000000   1.156500   0.000000 )  
               a(3) = (   0.000000   0.000000   4.750000 )  

     reciprocal axes: (cart. coord. in units 2 pi/alat)
               b(1) = (  1.000000  0.000000  0.000000 )  
               b(2) = (  0.000000  0.864678  0.000000 )  
               b(3) = (  0.000000  0.000000  0.210526 )  


     PseudoPot. # 1 for Al read from file:
     /pseudo/Al.pbe-n-kjpaw_psl.1.0.0.UPF
     MD5 check sum: cfc449ca30b5f3223ec38ddd88ac046d
     Pseudo is Projector augmented-wave + core cor, Zval =  3.0
     Generated using "atomic" code by A. Dal Corso v.5.1
     Shape of augmentation charge: PSQ
     Using radial grid of 1135 points,  6 beta functions with: 
                l(1) =   0
                l(2) =   0
                l(3) =   1
                l(4) =   1
                l(5) =   2
                l(6) =   2
     Q(r) pseudized with 0 coefficients 


     PseudoPot. # 2 for Cu read from file:
     /pseudo/Cu.paw.z_11.ld1.psl.v1.0.0-low.upf
     MD5 check sum: 619f40885d92a09a85a8b37550532d0c
     Pseudo is Projector augmented-wave + core cor, Zval = 11.0
     Generated using "atomic" code by A. Dal Corso v.6.3MaX
     Shape of augmentation charge: PSQ
     Using radial grid of 1199 points,  6 beta functions with: 
                l(1) =   0
                l(2) =   0
                l(3) =   1
                l(4) =   1
                l(5) =   2
                l(6) =   2
     Q(r) pseudized with 0 coefficients 


     PseudoPot. # 3 for Mg read from file:
     /pseudo/Mg.pbe-n-kjpaw_psl.0.3.0.UPF
     MD5 check sum: 24ecedc7f3e3cbe212e682f4413594e4
     Pseudo is Projector augmented-wave + core cor, Zval =  2.0
     Generated using "atomic" code by A. Dal Corso v.5.0.99 svn rev. 10869
     Shape of augmentation charge: PSQ
     Using radial grid of 1129 points,  4 beta functions with: 
                l(1) =   0
                l(2) =   0
                l(3) =   1
                l(4) =   1
     Q(r) pseudized with 0 coefficients 


     PseudoPot. # 4 for C  read from file:
     /pseudo/C.pbe-n-kjpaw_psl.1.0.0.UPF
     MD5 check sum: 5d2aebdfa2cae82b50a7e79e9516da0f
     Pseudo is Projector augmented-wave + core cor, Zval =  4.0
     Generated using "atomic" code by A. Dal Corso v.5.1
     Shape of augmentation charge: PSQ
     Using radial grid of 1073 points,  4 beta functions with: 
                l(1) =   0
                l(2) =   0
                l(3) =   1
                l(4) =   1
     Q(r) pseudized with 0 coefficients 


     PseudoPot. # 5 for N  read from file:
     /pseudo/N.pbe-n-radius_5.UPF
     MD5 check sum: 16739722b17309cd8fe442a2ace49922
     Pseudo is Ultrasoft + core correction, Zval =  5.0
     Generated using "atomic" code by A. Dal Corso v.5.1
     Using radial grid of 1085 points,  4 beta functions with: 
                l(1) =   0
                l(2) =   0
                l(3) =   1
                l(4) =   1
     Q(r) pseudized with 0 coefficients 


     PseudoPot. # 6 for H  read from file:
     /pseudo/H.pbe-rrkjus_psl.1.0.0.UPF
     MD5 check sum: f52b6d4d1c606e5624b1dc7b2218f220
     Pseudo is Ultrasoft, Zval =  1.0
     Generated using "atomic" code by A. Dal Corso v.5.1
     Using radial grid of  929 points,  2 beta functions with: 
                l(1) =   0
                l(2) =   0
     Q(r) pseudized with 0 coefficients 


     atomic species   valence    mass     pseudopotential
        Al             3.00    26.98000     Al( 1.00)
        Cu            11.00    63.55000     Cu( 1.00)
        Mg             2.00    24.31000     Mg( 1.00)
        C              4.00    12.01100     C ( 1.00)
        N              5.00    14.00700     N ( 1.00)
        H              1.00     1.00800     H ( 1.00)

     No symmetry found


                                    s                        frac. trans.

      isym =  1     identity                                     

 cryst.   s( 1) = (     1          0          0      )
                  (     0          1          0      )
                  (     0          0          1      )

 cart.    s( 1) = (  1.0000000  0.0000000  0.0000000 )
                  (  0.0000000  1.0000000  0.0000000 )
                  (  0.0000000  0.0000000  1.0000000 )


     point group C_1 (1)    
     there are  1 classes
     the character table:

       E    
A      1.00

     the symmetry operations in each class and the name of the first element:

     E        1
          identity                                               

   Cartesian axes

     site n.     atom                  positions (alat units)
         1           H   tau(   1) = (   0.6099630   0.5347033   1.3204708  )
         2           H   tau(   2) = (   0.4079099   0.3001930   1.3207997  )
         3           C   tau(   3) = (   0.5664536   0.4851577   1.2007616  )
         4           C   tau(   4) = (   0.4506093   0.3508650   1.2008888  )
         5           H   tau(   5) = (   0.7173930   0.6589045   1.0544888  )
         6           C   tau(   6) = (   0.6272821   0.5559215   1.0524681  )
         7           C   tau(   7) = (   0.3903446   0.2821000   1.0524781  )
         8           H   tau(   8) = (   0.3009486   0.1787739   1.0509634  )
         9           C   tau(   9) = (   0.5668457   0.4866414   0.9027596  )
        10           C   tau(  10) = (   0.4493595   0.3517223   0.9010999  )
        11           N   tau(  11) = (   0.5949710   0.5189341   0.7369906  )
        12           N   tau(  12) = (   0.4123848   0.3106042   0.7389972  )
        13           H   tau(  13) = (   0.6658998   0.6081606   0.6782425  )
        14           N   tau(  14) = (   0.5000829   0.4115127   0.6414327  )
        15           Al  tau(  15) = (   0.2516779   0.9719687   0.3740839  )
        16           Al  tau(  16) = (   0.7482074   0.9638910   0.3771161  )
        17           Al  tau(  17) = (  -0.0005879   0.3906308   0.3751941  )
        18           Al  tau(  18) = (   0.4987768   0.3817535   0.3929928  )
        19           Mg  tau(  19) = (   0.7493771   0.6435619   0.2318899  )
        20           Mg  tau(  20) = (   0.2498396   0.6446246   0.2354190  )
        21           Mg  tau(  21) = (  -0.0025956   0.0684280   0.2339675  )
        22           Mg  tau(  22) = (   0.5012229   0.0669045   0.2365088  )
        23           Cu  tau(  23) = (   0.4993572   0.8872473   0.2322607  )
        24           Cu  tau(  24) = (   0.0003804   0.8953477   0.2291321  )
        25           Cu  tau(  25) = (   0.2525775   0.3133224   0.2319142  )
        26           Cu  tau(  26) = (   0.7458676   0.3146327   0.2301882  )
        27           Al  tau(  27) = (   0.7470827   0.9891480   0.0475244  )
        28           Al  tau(  28) = (   0.2519616   0.9892538   0.0447145  )
        29           Al  tau(  29) = (   0.0009173   0.4119666   0.0469863  )
        30           Al  tau(  30) = (   0.4986682   0.4143908   0.0529768  )
        31           Al  tau(  31) = (   0.4986639   0.7420395  -0.0530339  )
        32           Al  tau(  32) = (   0.0008745   0.7443968  -0.0471988  )
        33           Al  tau(  33) = (   0.2519992   0.1670526  -0.0446293  )
        34           Al  tau(  34) = (   0.7471478   0.1671254  -0.0472814  )
        35           Cu  tau(  35) = (   0.2524138   0.8430499  -0.2318941  )
        36           Cu  tau(  36) = (   0.7458264   0.8417712  -0.2302461  )
        37           Cu  tau(  37) = (   0.0004174   0.2608898  -0.2291488  )
        38           Cu  tau(  38) = (   0.4993830   0.2690472  -0.2320250  )
        39           Mg  tau(  39) = (   0.5011501   1.0894954  -0.2362475  )
        40           Mg  tau(  40) = (  -0.0025602   1.0878714  -0.2339189  )
        41           Mg  tau(  41) = (   0.7493012   0.5127797  -0.2319409  )
        42           Mg  tau(  42) = (   0.2499640   0.5117421  -0.2356527  )
        43           Al  tau(  43) = (   0.4985082   0.7748953  -0.3930305  )
        44           Al  tau(  44) = (  -0.0005966   0.7656496  -0.3754730  )
        45           Al  tau(  45) = (   0.7481414   0.1922970  -0.3768413  )
        46           Al  tau(  46) = (   0.2518154   0.1843942  -0.3740158  )
        47           N   tau(  47) = (   0.5001183   0.7451943  -0.6414400  )
        48           H   tau(  48) = (   0.6807686   0.5621030  -0.6782757  )
        49           N   tau(  49) = (   0.4051360   0.8392667  -0.7390582  )
        50           N   tau(  50) = (   0.6025265   0.6448793  -0.7369862  )
        51           C   tau(  51) = (   0.4450569   0.8008991  -0.9011449  )
        52           C   tau(  52) = (   0.5721600   0.6750056  -0.9027756  )
        53           H   tau(  53) = (   0.2847058   0.9627269  -1.0511375  )
        54           C   tau(  54) = (   0.3812814   0.8660808  -1.0525670  )
        55           C   tau(  55) = (   0.6376093   0.6103172  -1.0524136  )
        56           H   tau(  56) = (   0.7350360   0.5142231  -1.0543576  )
        57           C   tau(  57) = (   0.4465816   0.8019657  -1.2009338  )
        58           C   tau(  58) = (   0.5718941   0.6764688  -1.2007495  )
        59           H   tau(  59) = (   0.4005231   0.8495468  -1.3208684  )
        60           H   tau(  60) = (   0.6190364   0.6302745  -1.3204251  )

   Crystallographic axes

     site n.     atom                  positions (cryst. coord.)
         1           H   tau(   1) = (  0.6099630  0.4623463  0.2779938  )
         2           H   tau(   2) = (  0.4079099  0.2595703  0.2780631  )
         3           C   tau(   3) = (  0.5664536  0.4195053  0.2527919  )
         4           C   tau(   4) = (  0.4506093  0.3033853  0.2528187  )
         5           H   tau(   5) = (  0.7173930  0.5697404  0.2219976  )
         6           C   tau(   6) = (  0.6272821  0.4806932  0.2215722  )
         7           C   tau(   7) = (  0.3903446  0.2439258  0.2215743  )
         8           H   tau(   8) = (  0.3009486  0.1545819  0.2212555  )
         9           C   tau(   9) = (  0.5668457  0.4207882  0.1900547  )
        10           C   tau(  10) = (  0.4493595  0.3041266  0.1897053  )
        11           N   tau(  11) = (  0.5949710  0.4487110  0.1551559  )
        12           N   tau(  12) = (  0.4123848  0.2685727  0.1555783  )
        13           H   tau(  13) = (  0.6658998  0.5258633  0.1427879  )
        14           N   tau(  14) = (  0.5000829  0.3558261  0.1350385  )
        15           Al  tau(  15) = (  0.2516779  0.8404402  0.0787545  )
        16           Al  tau(  16) = (  0.7482074  0.8334556  0.0793929  )
        17           Al  tau(  17) = ( -0.0005879  0.3377700  0.0789882  )
        18           Al  tau(  18) = (  0.4987768  0.3300940  0.0827353  )
        19           Mg  tau(  19) = (  0.7493771  0.5564740  0.0488189  )
        20           Mg  tau(  20) = (  0.2498396  0.5573929  0.0495619  )
        21           Mg  tau(  21) = ( -0.0025956  0.0591682  0.0492563  )
        22           Mg  tau(  22) = (  0.5012229  0.0578508  0.0497913  )
        23           Cu  tau(  23) = (  0.4993572  0.7671835  0.0488970  )
        24           Cu  tau(  24) = (  0.0003804  0.7741877  0.0482383  )
        25           Cu  tau(  25) = (  0.2525775  0.2709231  0.0488240  )
        26           Cu  tau(  26) = (  0.7458676  0.2720561  0.0484607  )
        27           Al  tau(  27) = (  0.7470827  0.8552947  0.0100051  )
        28           Al  tau(  28) = (  0.2519616  0.8553862  0.0094136  )
        29           Al  tau(  29) = (  0.0009173  0.3562186  0.0098918  )
        30           Al  tau(  30) = (  0.4986682  0.3583147  0.0111530  )
        31           Al  tau(  31) = (  0.4986639  0.6416254 -0.0111650  )
        32           Al  tau(  32) = (  0.0008745  0.6436638 -0.0099366  )
        33           Al  tau(  33) = (  0.2519992  0.1444467 -0.0093956  )
        34           Al  tau(  34) = (  0.7471478  0.1445097 -0.0099540  )
        35           Cu  tau(  35) = (  0.2524138  0.7289670 -0.0488198  )
        36           Cu  tau(  36) = (  0.7458264  0.7278612 -0.0484729  )
        37           Cu  tau(  37) = (  0.0004174  0.2255857 -0.0482419  )
        38           Cu  tau(  38) = (  0.4993830  0.2326393 -0.0488474  )
        39           Mg  tau(  39) = (  0.5011501  0.9420630 -0.0497363  )
        40           Mg  tau(  40) = ( -0.0025602  0.9406587 -0.0492461  )
        41           Mg  tau(  41) = (  0.7493012  0.4433895 -0.0488297  )
        42           Mg  tau(  42) = (  0.2499640  0.4424923 -0.0496111  )
        43           Al  tau(  43) = (  0.4985082  0.6700351 -0.0827433  )
        44           Al  tau(  44) = ( -0.0005966  0.6620406 -0.0790469  )
        45           Al  tau(  45) = (  0.7481414  0.1662750 -0.0793350  )
        46           Al  tau(  46) = (  0.2518154  0.1594417 -0.0787402  )
        47           N   tau(  47) = (  0.5001183  0.6443533 -0.1350400  )
        48           H   tau(  48) = (  0.6807686  0.4860382 -0.1427949  )
        49           N   tau(  49) = (  0.4051360  0.7256957 -0.1555912  )
        50           N   tau(  50) = (  0.6025265  0.5576132 -0.1551550  )
        51           C   tau(  51) = (  0.4450569  0.6925200 -0.1897147  )
        52           C   tau(  52) = (  0.5721600  0.5836627 -0.1900580  )
        53           H   tau(  53) = (  0.2847058  0.8324490 -0.2212921  )
        54           C   tau(  54) = (  0.3812814  0.7488812 -0.2215931  )
        55           C   tau(  55) = (  0.6376093  0.5277280 -0.2215608  )
        56           H   tau(  56) = (  0.7350360  0.4446375 -0.2219700  )
        57           C   tau(  57) = (  0.4465816  0.6934423 -0.2528282  )
        58           C   tau(  58) = (  0.5718941  0.5849278 -0.2527894  )
        59           H   tau(  59) = (  0.4005231  0.7345847 -0.2780776  )
        60           H   tau(  60) = (  0.6190364  0.5449846 -0.2779842  )

     number of k points=     1  Methfessel-Paxton smearing, width (Ry)=  0.0500
                       cart. coord. in units 2pi/alat
        k(    1) = (  -0.5000000   0.2161696  -0.1052632), wk =   2.0000000

                       cryst. coord.
        k(    1) = (  -0.5000000   0.2500000  -0.5000000), wk =   2.0000000

     Dense  grid:  6114803 G-vectors     FFT dimensions: ( 135, 150, 625)

     Smooth grid:  2162177 G-vectors     FFT dimensions: (  96, 108, 432)

     Dynamical RAM for                 wfc:       2.58 MB

     Dynamical RAM for     wfc (w. buffer):       2.58 MB

     Dynamical RAM for           str. fact:       2.19 MB

     Dynamical RAM for           local pot:       0.00 MB

     Dynamical RAM for          nlocal pot:      10.62 MB

     Dynamical RAM for                qrad:      30.92 MB

     Dynamical RAM for          rho,v,vnew:       2.48 MB

     Dynamical RAM for               rhoin:       0.83 MB

     Dynamical RAM for            rho*nmix:       5.84 MB

     Dynamical RAM for           G-vectors:       1.43 MB

     Dynamical RAM for          h,s,v(r/c):       0.00 MB

     Dynamical RAM for          <psi|beta>:       1.61 MB

     Dynamical RAM for      wfcinit/wfcrot:       9.48 MB

     Dynamical RAM for           addusdens:      73.67 MB

     Estimated static dynamical RAM per process >      61.76 MB

     Estimated max dynamical RAM per process >     135.43 MB

     Estimated total dynamical RAM >      33.86 GB

     Initial potential from superposition of free atoms

     starting charge  239.95351, renormalised to  240.00000

     negative rho (up, down):  2.804E-04 0.000E+00
     Starting wfcs are  250 randomized atomic wfcs
     Checking if some PAW data can be deallocated... 
       PAW data deallocated on  190 nodes for type:  1
       PAW data deallocated on  224 nodes for type:  2
       PAW data deallocated on  224 nodes for type:  3
       PAW data deallocated on  202 nodes for type:  4

     total cpu time spent up to now is       13.4 secs

     Self-consistent Calculation

     iteration #  1     ecut=    90.00 Ry     beta= 0.70
     CG style diagonalization
     ethr =  1.00E-02,  avg # of iterations =  2.9

     total cpu time spent up to now is       27.3 secs

     total energy              =   -2956.15668173 Ry
     Harris-Foulkes estimate   =   -2960.08595381 Ry
     estimated scf accuracy    <       5.45854463 Ry

     iteration #  2     ecut=    90.00 Ry     beta= 0.70
     CG style diagonalization
     ethr =  2.27E-03,  avg # of iterations =  4.4

     negative rho (up, down):  4.590E-07 0.000E+00

     total cpu time spent up to now is       45.8 secs

     total energy              =   -2941.44604111 Ry
     Harris-Foulkes estimate   =   -2966.57760937 Ry
     estimated scf accuracy    <     191.83625774 Ry

     iteration #  3     ecut=    90.00 Ry     beta= 0.70
     CG style diagonalization
     ethr =  2.27E-03,  avg # of iterations =  3.8

     negative rho (up, down):  4.971E-06 0.000E+00

     total cpu time spent up to now is       61.4 secs

     total energy              =   -2956.12047732 Ry
     Harris-Foulkes estimate   =   -2961.64633691 Ry
     estimated scf accuracy    <      32.52732882 Ry

     iteration #  4     ecut=    90.00 Ry     beta= 0.70
     CG style diagonalization
     c_bands:  1 eigenvalues not converged
     ethr =  2.27E-03,  avg # of iterations =  3.4

     negative rho (up, down):  6.880E-06 0.000E+00

     total cpu time spent up to now is       75.2 secs

     total energy              =   -2958.66473659 Ry
     Harris-Foulkes estimate   =   -2959.68576923 Ry
     estimated scf accuracy    <       3.15865652 Ry

     iteration #  5     ecut=    90.00 Ry     beta= 0.70
     CG style diagonalization
     ethr =  1.32E-03,  avg # of iterations =  3.1

     negative rho (up, down):  5.502E-06 0.000E+00

     total cpu time spent up to now is       87.8 secs

     total energy              =   -2957.93055669 Ry
     Harris-Foulkes estimate   =   -2960.38536256 Ry
     estimated scf accuracy    <      32.60709715 Ry

     iteration #  6     ecut=    90.00 Ry     beta= 0.70
     CG style diagonalization
     ethr =  1.32E-03,  avg # of iterations =  3.0

     negative rho (up, down):  2.429E-06 0.000E+00

     total cpu time spent up to now is      100.2 secs

     total energy              =   -2959.19699430 Ry
     Harris-Foulkes estimate   =   -2959.36855313 Ry
     estimated scf accuracy    <       0.81777253 Ry

     iteration #  7     ecut=    90.00 Ry     beta= 0.70
     CG style diagonalization
     c_bands:  4 eigenvalues not converged
     ethr =  3.41E-04,  avg # of iterations =  4.1

     negative rho (up, down):  2.242E-05 0.000E+00

     total cpu time spent up to now is      117.0 secs

     total energy              =   -2959.28600159 Ry
     Harris-Foulkes estimate   =   -2959.45330067 Ry
     estimated scf accuracy    <       0.98538731 Ry

     iteration #  8     ecut=    90.00 Ry     beta= 0.70
     CG style diagonalization
     ethr =  3.41E-04,  avg # of iterations =  3.1

     negative rho (up, down):  4.728E-05 0.000E+00

     total cpu time spent up to now is      129.5 secs

     total energy              =   -2959.36668300 Ry
     Harris-Foulkes estimate   =   -2959.40466684 Ry
     estimated scf accuracy    <       0.13952127 Ry

     iteration #  9     ecut=    90.00 Ry     beta= 0.70
     CG style diagonalization
     c_bands:  2 eigenvalues not converged
     ethr =  5.81E-05,  avg # of iterations =  5.4

     negative rho (up, down):  9.678E-05 0.000E+00

     total cpu time spent up to now is      152.0 secs

     total energy              =   -2959.40533022 Ry
     Harris-Foulkes estimate   =   -2959.41834503 Ry
     estimated scf accuracy    <       0.06239784 Ry

     iteration # 10     ecut=    90.00 Ry     beta= 0.70
     CG style diagonalization
     c_bands:  2 eigenvalues not converged
     ethr =  2.60E-05,  avg # of iterations =  4.5

     negative rho (up, down):  1.457E-04 0.000E+00

     total cpu time spent up to now is      170.5 secs

     total energy              =   -2959.41295954 Ry
     Harris-Foulkes estimate   =   -2959.42096157 Ry
     estimated scf accuracy    <       0.03549883 Ry

     iteration # 11     ecut=    90.00 Ry     beta= 0.70
     CG style diagonalization
     c_bands:  3 eigenvalues not converged
     ethr =  1.48E-05,  avg # of iterations =  4.1

     negative rho (up, down):  5.263E-04 0.000E+00

     total cpu time spent up to now is      187.4 secs

     total energy              =   -2959.41422575 Ry
     Harris-Foulkes estimate   =   -2959.42170235 Ry
     estimated scf accuracy    <       0.02058341 Ry

     iteration # 12     ecut=    90.00 Ry     beta= 0.70
     CG style diagonalization
     c_bands:  4 eigenvalues not converged
     ethr =  8.58E-06,  avg # of iterations =  4.9

     negative rho (up, down):  4.489E-04 0.000E+00

     total cpu time spent up to now is      207.7 secs

     total energy              =   -2959.41931043 Ry
     Harris-Foulkes estimate   =   -2959.42457122 Ry
     estimated scf accuracy    <       0.01799548 Ry

     iteration # 13     ecut=    90.00 Ry     beta= 0.70
     CG style diagonalization
     ethr =  7.50E-06,  avg # of iterations =  3.2

     negative rho (up, down):  4.148E-04 0.000E+00

     total cpu time spent up to now is      220.6 secs

     total energy              =   -2959.42057463 Ry
     Harris-Foulkes estimate   =   -2959.42174124 Ry
     estimated scf accuracy    <       0.00518187 Ry

     iteration # 14     ecut=    90.00 Ry     beta= 0.70
     CG style diagonalization
     c_bands:  2 eigenvalues not converged
     ethr =  2.16E-06,  avg # of iterations =  4.6

     negative rho (up, down):  3.228E-04 0.000E+00

     total cpu time spent up to now is      239.6 secs

     total energy              =   -2959.42017784 Ry
     Harris-Foulkes estimate   =   -2959.42170811 Ry
     estimated scf accuracy    <       0.00263292 Ry

     iteration # 15     ecut=    90.00 Ry     beta= 0.70
     CG style diagonalization
     c_bands:  3 eigenvalues not converged
     ethr =  1.10E-06,  avg # of iterations =  5.3

     negative rho (up, down):  3.284E-04 0.000E+00

     total cpu time spent up to now is      261.7 secs

     total energy              =   -2959.42047096 Ry
     Harris-Foulkes estimate   =   -2959.42328059 Ry
     estimated scf accuracy    <       0.02788719 Ry

     iteration # 16     ecut=    90.00 Ry     beta= 0.70
     CG style diagonalization
     c_bands:  1 eigenvalues not converged
     ethr =  1.10E-06,  avg # of iterations =  3.4

     negative rho (up, down):  3.401E-04 0.000E+00

     total cpu time spent up to now is      275.6 secs

     total energy              =   -2959.42155376 Ry
     Harris-Foulkes estimate   =   -2959.42255217 Ry
     estimated scf accuracy    <       0.00853296 Ry

     iteration # 17     ecut=    90.00 Ry     beta= 0.70
     CG style diagonalization
     ethr =  1.10E-06,  avg # of iterations =  3.1

     negative rho (up, down):  3.550E-04 0.000E+00

     total cpu time spent up to now is      288.2 secs

     total energy              =   -2959.42191024 Ry
     Harris-Foulkes estimate   =   -2959.42215212 Ry
     estimated scf accuracy    <       0.00109070 Ry

     iteration # 18     ecut=    90.00 Ry     beta= 0.70
     CG style diagonalization
     ethr =  4.54E-07,  avg # of iterations =  3.2

     negative rho (up, down):  3.657E-04 0.000E+00

     total cpu time spent up to now is      301.4 secs

     total energy              =   -2959.42206374 Ry
     Harris-Foulkes estimate   =   -2959.42220195 Ry
     estimated scf accuracy    <       0.00064368 Ry

     iteration # 19     ecut=    90.00 Ry     beta= 0.70
     CG style diagonalization
     ethr =  2.68E-07,  avg # of iterations =  3.5

     negative rho (up, down):  3.679E-04 0.000E+00

     total cpu time spent up to now is      315.9 secs

     total energy              =   -2959.42225919 Ry
     Harris-Foulkes estimate   =   -2959.42228403 Ry
     estimated scf accuracy    <       0.00006674 Ry

     iteration # 20     ecut=    90.00 Ry     beta= 0.70
     CG style diagonalization
     c_bands:  2 eigenvalues not converged
     ethr =  2.78E-08,  avg # of iterations =  7.9

     negative rho (up, down):  3.693E-04 0.000E+00

     total cpu time spent up to now is      348.8 secs

     total energy              =   -2959.42257456 Ry
     Harris-Foulkes estimate   =   -2959.42259242 Ry
     estimated scf accuracy    <       0.00007205 Ry

     iteration # 21     ecut=    90.00 Ry     beta= 0.70
     CG style diagonalization
     ethr =  2.78E-08,  avg # of iterations =  4.0

     negative rho (up, down):  3.700E-04 0.000E+00

     total cpu time spent up to now is      365.2 secs

     total energy              =   -2959.42259807 Ry
     Harris-Foulkes estimate   =   -2959.42260707 Ry
     estimated scf accuracy    <       0.00002074 Ry

     iteration # 22     ecut=    90.00 Ry     beta= 0.70
     CG style diagonalization
     ethr =  8.64E-09,  avg # of iterations =  6.0

     negative rho (up, down):  3.704E-04 0.000E+00

     total cpu time spent up to now is      390.1 secs

     total energy              =   -2959.42262455 Ry
     Harris-Foulkes estimate   =   -2959.42263145 Ry
     estimated scf accuracy    <       0.00002552 Ry

     iteration # 23     ecut=    90.00 Ry     beta= 0.70
     CG style diagonalization
     ethr =  8.64E-09,  avg # of iterations =  3.7

     negative rho (up, down):  3.715E-04 0.000E+00

     total cpu time spent up to now is      405.3 secs

     total energy              =   -2959.42262998 Ry
     Harris-Foulkes estimate   =   -2959.42263247 Ry
     estimated scf accuracy    <       0.00000332 Ry

     iteration # 24     ecut=    90.00 Ry     beta= 0.70
     CG style diagonalization
     c_bands:  1 eigenvalues not converged
     ethr =  1.38E-09,  avg # of iterations =  8.5

     negative rho (up, down):  3.723E-04 0.000E+00

     total cpu time spent up to now is      440.7 secs

     total energy              =   -2959.42264096 Ry
     Harris-Foulkes estimate   =   -2959.42264192 Ry
     estimated scf accuracy    <       0.00000232 Ry

     iteration # 25     ecut=    90.00 Ry     beta= 0.70
     CG style diagonalization
     ethr =  9.68E-10,  avg # of iterations =  4.8

     negative rho (up, down):  3.724E-04 0.000E+00

     total cpu time spent up to now is      460.6 secs

     total energy              =   -2959.42264235 Ry
     Harris-Foulkes estimate   =   -2959.42264277 Ry
     estimated scf accuracy    <       0.00000132 Ry

     iteration # 26     ecut=    90.00 Ry     beta= 0.70
     CG style diagonalization
     ethr =  5.51E-10,  avg # of iterations =  5.2

     negative rho (up, down):  3.726E-04 0.000E+00

     total cpu time spent up to now is      481.9 secs

     End of self-consistent calculation

          k =-0.5000 0.2162-0.1053 (270228 PWs)   bands (ev):

   -25.0753 -25.0700 -20.2882 -20.2853 -19.0049 -19.0020 -16.8749 -16.8719
   -16.1045 -16.1015 -13.7903 -13.7895 -13.3882 -13.3879 -12.9360 -12.9324
   -11.1612 -11.1594 -10.4263 -10.4223  -9.2966  -9.2832  -9.2120  -9.1994
    -8.9307  -8.8927  -8.5211  -8.5176  -8.2864  -8.2699  -8.2505  -8.2473
    -7.8058  -7.7083  -7.3680  -7.1122  -7.0824  -6.8552  -6.4893  -6.4861
    -6.3562  -6.3527  -6.2075  -6.1904  -5.7465  -5.7297  -5.5458  -5.5421
    -5.5058  -5.3752  -5.3097  -5.1802  -4.8180  -4.7985  -4.7946  -4.7795
    -4.5327  -4.5137  -4.4177  -4.4043  -4.3835  -4.3699  -4.3088  -4.2988
    -4.2599  -4.2507  -4.2437  -4.2167  -4.1978  -4.1776  -4.1725  -4.1578
    -4.1195  -4.1113  -4.1073  -4.1046  -4.0371  -4.0181  -4.0096  -3.9893
    -3.9583  -3.9389  -3.9202  -3.9152  -3.8977  -3.8690  -3.8646  -3.8487
    -3.8424  -3.8278  -3.6487  -3.6370  -3.6067  -3.5747  -3.5650  -3.5329
    -3.3903  -3.3857  -3.3568  -3.3005  -3.0784  -3.0125  -2.7300  -2.6885
    -2.6636  -2.6395  -2.1994  -2.1951  -2.0459  -1.8983  -1.8658  -1.8498
    -1.7664  -1.4432  -1.2093  -1.1818  -0.8439  -0.7725  -0.6909  -0.6521
    -0.1697  -0.0926   0.0972   0.1248   0.2044   0.2267   0.2970   0.3140
     0.5556   0.6048   0.9361   1.1378   1.1932   1.3995   1.4165   1.5456
     1.6473   1.6577   1.7641   1.8374   1.8783   1.9801   2.0118   2.1972
     2.3533   2.4422   2.4840   2.5279   2.6072   2.7150   2.7723   2.8225
     2.9018   2.9235   3.0143   3.0342   3.0986   3.1676   3.2059   3.2472

     occupation numbers 
     1.0000   1.0000   1.0000   1.0000   1.0000   1.0000   1.0000   1.0000
     1.0000   1.0000   1.0000   1.0000   1.0000   1.0000   1.0000   1.0000
     1.0000   1.0000   1.0000   1.0000   1.0000   1.0000   1.0000   1.0000
     1.0000   1.0000   1.0000   1.0000   1.0000   1.0000   1.0000   1.0000
     1.0000   1.0000   1.0000   1.0000   1.0000   1.0000   1.0000   1.0000
     1.0000   1.0000   1.0000   1.0000   1.0000   1.0000   1.0000   1.0000
     1.0000   1.0000   1.0000   1.0000   1.0000   1.0000   1.0000   1.0000
     1.0000   1.0000   1.0000   1.0000   1.0000   1.0000   1.0000   1.0000
     1.0000   1.0000   1.0000   1.0000   1.0000   1.0000   1.0000   1.0000
     1.0000   1.0000   1.0000   1.0000   1.0000   1.0000   1.0000   1.0000
     1.0000   1.0000   1.0000   1.0000   1.0000   1.0000   1.0000   1.0000
     1.0000   1.0000   1.0000   1.0000   1.0000   1.0000   1.0000   1.0000
     1.0000   1.0000   1.0000   1.0000   1.0000   1.0000   1.0000   1.0000
     1.0000   1.0000   1.0005   1.0005   1.0014   1.0035   1.0042   1.0045
     1.0070   1.0246   1.0355   1.0352   0.9548   0.9112   0.8478   0.8128
     0.2544   0.1777   0.0409   0.0275  -0.0029  -0.0093  -0.0242  -0.0268
    -0.0328  -0.0301  -0.0099  -0.0036  -0.0026  -0.0007  -0.0006  -0.0002
    -0.0001  -0.0001  -0.0000  -0.0000  -0.0000  -0.0000  -0.0000  -0.0000
    -0.0000  -0.0000  -0.0000  -0.0000  -0.0000  -0.0000  -0.0000  -0.0000
    -0.0000  -0.0000  -0.0000  -0.0000  -0.0000  -0.0000  -0.0000  -0.0000

     the Fermi energy is    -0.3774 ev

!    total energy              =   -2959.42264299 Ry
     Harris-Foulkes estimate   =   -2959.42264342 Ry
     estimated scf accuracy    <       0.00000042 Ry

     The total energy is the sum of the following terms:

     one-electron contribution =  -11969.05646163 Ry
     hartree contribution      =    6105.86096863 Ry
     xc contribution           =    -504.77011449 Ry
     ewald contribution        =    5006.79188490 Ry
     one-center paw contrib.   =   -1598.26843491 Ry
      -> PAW hartree energy AE =       0.00000000 Ry
      -> PAW hartree energy PS =       0.00000000 Ry
      -> PAW xc energy AE      =       0.00000000 Ry
      -> PAW xc energy PS      =       0.00000000 Ry
      -> total E_H with PAW    =    6105.86096863 Ry
      -> total E_XC with PAW   =    -504.77011449 Ry
     smearing contrib. (-TS)   =       0.01951452 Ry

     convergence has been achieved in  26 iterations

     Writing output data file /MgAl2Cu_2x1_C6H5N3_final/scf_pdos.save/

     init_run     :     10.81s CPU     10.93s WALL (       1 calls)
     electrons    :    465.20s CPU    468.78s WALL (       1 calls)

     Called by init_run:
     wfcinit      :      3.14s CPU      3.18s WALL (       1 calls)
     wfcinit:atom :      0.00s CPU      0.00s WALL (       1 calls)
     wfcinit:wfcr :      3.11s CPU      3.13s WALL (       1 calls)
     potinit      :      2.07s CPU      2.07s WALL (       1 calls)
     hinit0       :      2.70s CPU      2.71s WALL (       1 calls)

     Called by electrons:
     c_bands      :    419.45s CPU    420.74s WALL (      26 calls)
     sum_band     :     30.93s CPU     32.23s WALL (      26 calls)
     v_of_rho     :      5.16s CPU      5.22s WALL (      27 calls)
     v_h          :      0.60s CPU      0.61s WALL (      27 calls)
     v_xc         :      4.56s CPU      4.61s WALL (      27 calls)
     newd         :      5.96s CPU      6.70s WALL (      27 calls)
     PAW_pot      :      1.62s CPU      1.62s WALL (      27 calls)
     mix_rho      :      1.35s CPU      1.38s WALL (      26 calls)

     Called by c_bands:
     init_us_2    :      0.29s CPU      0.30s WALL (      53 calls)
     ccgdiagg     :    368.99s CPU    370.16s WALL (      26 calls)
     wfcrot       :     53.39s CPU     53.49s WALL (      26 calls)

     Called by sum_band:
     sum_band:bec :      0.02s CPU      0.02s WALL (      26 calls)
     addusdens    :      6.38s CPU      7.63s WALL (      26 calls)

     Called by *cgdiagg:
     h_psi        :    299.41s CPU    300.08s WALL (   14055 calls)
     s_psi        :     56.19s CPU     56.61s WALL (   28084 calls)
     cdiaghg      :      0.55s CPU      0.56s WALL (      26 calls)
     cdiaghg:chol :      0.02s CPU      0.03s WALL (      26 calls)
     cdiaghg:inve :      0.00s CPU      0.00s WALL (      26 calls)
     cdiaghg:para :      0.06s CPU      0.06s WALL (      52 calls)

     Called by h_psi:
     h_psi:calbec :     47.16s CPU     47.25s WALL (   14055 calls)
     vloc_psi     :    199.45s CPU    199.90s WALL (   14055 calls)
     add_vuspsi   :     52.50s CPU     52.73s WALL (   14055 calls)
     hs_1psi      :    276.45s CPU    277.21s WALL (   14029 calls)
     s_1psi       :     72.36s CPU     72.58s WALL (   14029 calls)

     General routines
     calbec       :     92.13s CPU     92.37s WALL (   28110 calls)
     fft          :      7.15s CPU      7.20s WALL (     349 calls)
     ffts         :      0.37s CPU      0.37s WALL (      53 calls)
     fftw         :    219.71s CPU    220.17s WALL (   40718 calls)
     interpolate  :      0.91s CPU      0.92s WALL (      27 calls)

     Parallel routines
     fft_scatt_xy :      1.23s CPU      1.24s WALL (   41120 calls)
     fft_scatt_yz :    217.06s CPU    217.55s WALL (   41120 calls)

     PAW routines
     PAW_pot      :      1.62s CPU      1.62s WALL (      27 calls)

     PWSCF        :   7m59.79s CPU   8m 5.03s WALL


   This run was terminated on:  13: 5:46   7Oct2024            

=------------------------------------------------------------------------------=
   JOB DONE.
=------------------------------------------------------------------------------=
