
     Program PROJWFC v.6.5 starts on  7Oct2024 at 13:17:39 

     This program is part of the open-source Quantum ESPRESSO suite
     for quantum simulation of materials; please cite
         "P. Giannozzi et al., J. Phys.:Condens. Matter 21 395502 (2009);
         "P. Giannozzi et al., J. Phys.:Condens. Matter 29 465901 (2017);
          URL http://www.quantum-espresso.org", 
     in publications or presentations arising from this work. More details at
     http://www.quantum-espresso.org/quote

     Parallel version (MPI & OpenMP), running on      96 processor cores
     Number of MPI processes:                96
     Threads/MPI process:                     1

     MPI processes distributed on     2 nodes
     R & G space division:  proc/nbgrp/npool/nimage =      96

     Reading xml data from directory:

     /MgAl2Cu_2x1_C6H5N3_final/scf_pdos.save/

     IMPORTANT: XC functional enforced from input :
     Exchange-correlation= PBE
                           (   1   4   3   4   0   0   0)
     Any further DFT definition will be discarded
     Please, verify this is what you really want

               file Al.pbe-n-kjpaw_psl.1.0.0.UPF: wavefunction(s)  3S 3P renormalized
               file Cu.paw.z_11.ld1.psl.v1.0.0-low.upf: wavefunction(s)  4S 3D renormalized
               file Mg.pbe-n-kjpaw_psl.0.3.0.UPF: wavefunction(s)  3S renormalized
               file C.pbe-n-kjpaw_psl.1.0.0.UPF: wavefunction(s)  2S 2P renormalized

     Parallelization info
     --------------------
     sticks:   dense  smooth     PW     G-vecs:    dense   smooth      PW
     Min         156      78     20                63682    22518    3016
     Max         157      79     21                63717    22531    3041
     Sum       15037    7523   1971              6114803  2162177  290563


     negative rho (up, down):  3.726E-04 0.000E+00

     Gaussian broadening (read from file): ngauss,degauss=   1    0.050000


     Calling projwave .... 
     linear algebra parallelized on  81 procs

  Problem Sizes 
  natomwfc =          250
  nx       =           28
  nbnd     =          160
  nkstot   =            1
  npwx     =         2840
  nkb      =          660


     Atomic states used for projection
     (read from pseudopotential files):

     state #   1: atom   1 (H  ), wfc  1 (l=0 m= 1)
     state #   2: atom   2 (H  ), wfc  1 (l=0 m= 1)
     state #   3: atom   3 (C  ), wfc  1 (l=0 m= 1)
     state #   4: atom   3 (C  ), wfc  2 (l=1 m= 1)
     state #   5: atom   3 (C  ), wfc  2 (l=1 m= 2)
     state #   6: atom   3 (C  ), wfc  2 (l=1 m= 3)
     state #   7: atom   4 (C  ), wfc  1 (l=0 m= 1)
     state #   8: atom   4 (C  ), wfc  2 (l=1 m= 1)
     state #   9: atom   4 (C  ), wfc  2 (l=1 m= 2)
     state #  10: atom   4 (C  ), wfc  2 (l=1 m= 3)
     state #  11: atom   5 (H  ), wfc  1 (l=0 m= 1)
     state #  12: atom   6 (C  ), wfc  1 (l=0 m= 1)
     state #  13: atom   6 (C  ), wfc  2 (l=1 m= 1)
     state #  14: atom   6 (C  ), wfc  2 (l=1 m= 2)
     state #  15: atom   6 (C  ), wfc  2 (l=1 m= 3)
     state #  16: atom   7 (C  ), wfc  1 (l=0 m= 1)
     state #  17: atom   7 (C  ), wfc  2 (l=1 m= 1)
     state #  18: atom   7 (C  ), wfc  2 (l=1 m= 2)
     state #  19: atom   7 (C  ), wfc  2 (l=1 m= 3)
     state #  20: atom   8 (H  ), wfc  1 (l=0 m= 1)
     state #  21: atom   9 (C  ), wfc  1 (l=0 m= 1)
     state #  22: atom   9 (C  ), wfc  2 (l=1 m= 1)
     state #  23: atom   9 (C  ), wfc  2 (l=1 m= 2)
     state #  24: atom   9 (C  ), wfc  2 (l=1 m= 3)
     state #  25: atom  10 (C  ), wfc  1 (l=0 m= 1)
     state #  26: atom  10 (C  ), wfc  2 (l=1 m= 1)
     state #  27: atom  10 (C  ), wfc  2 (l=1 m= 2)
     state #  28: atom  10 (C  ), wfc  2 (l=1 m= 3)
     state #  29: atom  11 (N  ), wfc  1 (l=0 m= 1)
     state #  30: atom  11 (N  ), wfc  2 (l=1 m= 1)
     state #  31: atom  11 (N  ), wfc  2 (l=1 m= 2)
     state #  32: atom  11 (N  ), wfc  2 (l=1 m= 3)
     state #  33: atom  12 (N  ), wfc  1 (l=0 m= 1)
     state #  34: atom  12 (N  ), wfc  2 (l=1 m= 1)
     state #  35: atom  12 (N  ), wfc  2 (l=1 m= 2)
     state #  36: atom  12 (N  ), wfc  2 (l=1 m= 3)
     state #  37: atom  13 (H  ), wfc  1 (l=0 m= 1)
     state #  38: atom  14 (N  ), wfc  1 (l=0 m= 1)
     state #  39: atom  14 (N  ), wfc  2 (l=1 m= 1)
     state #  40: atom  14 (N  ), wfc  2 (l=1 m= 2)
     state #  41: atom  14 (N  ), wfc  2 (l=1 m= 3)
     state #  42: atom  15 (Al ), wfc  1 (l=0 m= 1)
     state #  43: atom  15 (Al ), wfc  2 (l=1 m= 1)
     state #  44: atom  15 (Al ), wfc  2 (l=1 m= 2)
     state #  45: atom  15 (Al ), wfc  2 (l=1 m= 3)
     state #  46: atom  16 (Al ), wfc  1 (l=0 m= 1)
     state #  47: atom  16 (Al ), wfc  2 (l=1 m= 1)
     state #  48: atom  16 (Al ), wfc  2 (l=1 m= 2)
     state #  49: atom  16 (Al ), wfc  2 (l=1 m= 3)
     state #  50: atom  17 (Al ), wfc  1 (l=0 m= 1)
     state #  51: atom  17 (Al ), wfc  2 (l=1 m= 1)
     state #  52: atom  17 (Al ), wfc  2 (l=1 m= 2)
     state #  53: atom  17 (Al ), wfc  2 (l=1 m= 3)
     state #  54: atom  18 (Al ), wfc  1 (l=0 m= 1)
     state #  55: atom  18 (Al ), wfc  2 (l=1 m= 1)
     state #  56: atom  18 (Al ), wfc  2 (l=1 m= 2)
     state #  57: atom  18 (Al ), wfc  2 (l=1 m= 3)
     state #  58: atom  19 (Mg ), wfc  1 (l=0 m= 1)
     state #  59: atom  19 (Mg ), wfc  2 (l=1 m= 1)
     state #  60: atom  19 (Mg ), wfc  2 (l=1 m= 2)
     state #  61: atom  19 (Mg ), wfc  2 (l=1 m= 3)
     state #  62: atom  20 (Mg ), wfc  1 (l=0 m= 1)
     state #  63: atom  20 (Mg ), wfc  2 (l=1 m= 1)
     state #  64: atom  20 (Mg ), wfc  2 (l=1 m= 2)
     state #  65: atom  20 (Mg ), wfc  2 (l=1 m= 3)
     state #  66: atom  21 (Mg ), wfc  1 (l=0 m= 1)
     state #  67: atom  21 (Mg ), wfc  2 (l=1 m= 1)
     state #  68: atom  21 (Mg ), wfc  2 (l=1 m= 2)
     state #  69: atom  21 (Mg ), wfc  2 (l=1 m= 3)
     state #  70: atom  22 (Mg ), wfc  1 (l=0 m= 1)
     state #  71: atom  22 (Mg ), wfc  2 (l=1 m= 1)
     state #  72: atom  22 (Mg ), wfc  2 (l=1 m= 2)
     state #  73: atom  22 (Mg ), wfc  2 (l=1 m= 3)
     state #  74: atom  23 (Cu ), wfc  1 (l=0 m= 1)
     state #  75: atom  23 (Cu ), wfc  2 (l=1 m= 1)
     state #  76: atom  23 (Cu ), wfc  2 (l=1 m= 2)
     state #  77: atom  23 (Cu ), wfc  2 (l=1 m= 3)
     state #  78: atom  23 (Cu ), wfc  3 (l=2 m= 1)
     state #  79: atom  23 (Cu ), wfc  3 (l=2 m= 2)
     state #  80: atom  23 (Cu ), wfc  3 (l=2 m= 3)
     state #  81: atom  23 (Cu ), wfc  3 (l=2 m= 4)
     state #  82: atom  23 (Cu ), wfc  3 (l=2 m= 5)
     state #  83: atom  24 (Cu ), wfc  1 (l=0 m= 1)
     state #  84: atom  24 (Cu ), wfc  2 (l=1 m= 1)
     state #  85: atom  24 (Cu ), wfc  2 (l=1 m= 2)
     state #  86: atom  24 (Cu ), wfc  2 (l=1 m= 3)
     state #  87: atom  24 (Cu ), wfc  3 (l=2 m= 1)
     state #  88: atom  24 (Cu ), wfc  3 (l=2 m= 2)
     state #  89: atom  24 (Cu ), wfc  3 (l=2 m= 3)
     state #  90: atom  24 (Cu ), wfc  3 (l=2 m= 4)
     state #  91: atom  24 (Cu ), wfc  3 (l=2 m= 5)
     state #  92: atom  25 (Cu ), wfc  1 (l=0 m= 1)
     state #  93: atom  25 (Cu ), wfc  2 (l=1 m= 1)
     state #  94: atom  25 (Cu ), wfc  2 (l=1 m= 2)
     state #  95: atom  25 (Cu ), wfc  2 (l=1 m= 3)
     state #  96: atom  25 (Cu ), wfc  3 (l=2 m= 1)
     state #  97: atom  25 (Cu ), wfc  3 (l=2 m= 2)
     state #  98: atom  25 (Cu ), wfc  3 (l=2 m= 3)
     state #  99: atom  25 (Cu ), wfc  3 (l=2 m= 4)
     state # 100: atom  25 (Cu ), wfc  3 (l=2 m= 5)
     state # 101: atom  26 (Cu ), wfc  1 (l=0 m= 1)
     state # 102: atom  26 (Cu ), wfc  2 (l=1 m= 1)
     state # 103: atom  26 (Cu ), wfc  2 (l=1 m= 2)
     state # 104: atom  26 (Cu ), wfc  2 (l=1 m= 3)
     state # 105: atom  26 (Cu ), wfc  3 (l=2 m= 1)
     state # 106: atom  26 (Cu ), wfc  3 (l=2 m= 2)
     state # 107: atom  26 (Cu ), wfc  3 (l=2 m= 3)
     state # 108: atom  26 (Cu ), wfc  3 (l=2 m= 4)
     state # 109: atom  26 (Cu ), wfc  3 (l=2 m= 5)
     state # 110: atom  27 (Al ), wfc  1 (l=0 m= 1)
     state # 111: atom  27 (Al ), wfc  2 (l=1 m= 1)
     state # 112: atom  27 (Al ), wfc  2 (l=1 m= 2)
     state # 113: atom  27 (Al ), wfc  2 (l=1 m= 3)
     state # 114: atom  28 (Al ), wfc  1 (l=0 m= 1)
     state # 115: atom  28 (Al ), wfc  2 (l=1 m= 1)
     state # 116: atom  28 (Al ), wfc  2 (l=1 m= 2)
     state # 117: atom  28 (Al ), wfc  2 (l=1 m= 3)
     state # 118: atom  29 (Al ), wfc  1 (l=0 m= 1)
     state # 119: atom  29 (Al ), wfc  2 (l=1 m= 1)
     state # 120: atom  29 (Al ), wfc  2 (l=1 m= 2)
     state # 121: atom  29 (Al ), wfc  2 (l=1 m= 3)
     state # 122: atom  30 (Al ), wfc  1 (l=0 m= 1)
     state # 123: atom  30 (Al ), wfc  2 (l=1 m= 1)
     state # 124: atom  30 (Al ), wfc  2 (l=1 m= 2)
     state # 125: atom  30 (Al ), wfc  2 (l=1 m= 3)
     state # 126: atom  31 (Al ), wfc  1 (l=0 m= 1)
     state # 127: atom  31 (Al ), wfc  2 (l=1 m= 1)
     state # 128: atom  31 (Al ), wfc  2 (l=1 m= 2)
     state # 129: atom  31 (Al ), wfc  2 (l=1 m= 3)
     state # 130: atom  32 (Al ), wfc  1 (l=0 m= 1)
     state # 131: atom  32 (Al ), wfc  2 (l=1 m= 1)
     state # 132: atom  32 (Al ), wfc  2 (l=1 m= 2)
     state # 133: atom  32 (Al ), wfc  2 (l=1 m= 3)
     state # 134: atom  33 (Al ), wfc  1 (l=0 m= 1)
     state # 135: atom  33 (Al ), wfc  2 (l=1 m= 1)
     state # 136: atom  33 (Al ), wfc  2 (l=1 m= 2)
     state # 137: atom  33 (Al ), wfc  2 (l=1 m= 3)
     state # 138: atom  34 (Al ), wfc  1 (l=0 m= 1)
     state # 139: atom  34 (Al ), wfc  2 (l=1 m= 1)
     state # 140: atom  34 (Al ), wfc  2 (l=1 m= 2)
     state # 141: atom  34 (Al ), wfc  2 (l=1 m= 3)
     state # 142: atom  35 (Cu ), wfc  1 (l=0 m= 1)
     state # 143: atom  35 (Cu ), wfc  2 (l=1 m= 1)
     state # 144: atom  35 (Cu ), wfc  2 (l=1 m= 2)
     state # 145: atom  35 (Cu ), wfc  2 (l=1 m= 3)
     state # 146: atom  35 (Cu ), wfc  3 (l=2 m= 1)
     state # 147: atom  35 (Cu ), wfc  3 (l=2 m= 2)
     state # 148: atom  35 (Cu ), wfc  3 (l=2 m= 3)
     state # 149: atom  35 (Cu ), wfc  3 (l=2 m= 4)
     state # 150: atom  35 (Cu ), wfc  3 (l=2 m= 5)
     state # 151: atom  36 (Cu ), wfc  1 (l=0 m= 1)
     state # 152: atom  36 (Cu ), wfc  2 (l=1 m= 1)
     state # 153: atom  36 (Cu ), wfc  2 (l=1 m= 2)
     state # 154: atom  36 (Cu ), wfc  2 (l=1 m= 3)
     state # 155: atom  36 (Cu ), wfc  3 (l=2 m= 1)
     state # 156: atom  36 (Cu ), wfc  3 (l=2 m= 2)
     state # 157: atom  36 (Cu ), wfc  3 (l=2 m= 3)
     state # 158: atom  36 (Cu ), wfc  3 (l=2 m= 4)
     state # 159: atom  36 (Cu ), wfc  3 (l=2 m= 5)
     state # 160: atom  37 (Cu ), wfc  1 (l=0 m= 1)
     state # 161: atom  37 (Cu ), wfc  2 (l=1 m= 1)
     state # 162: atom  37 (Cu ), wfc  2 (l=1 m= 2)
     state # 163: atom  37 (Cu ), wfc  2 (l=1 m= 3)
     state # 164: atom  37 (Cu ), wfc  3 (l=2 m= 1)
     state # 165: atom  37 (Cu ), wfc  3 (l=2 m= 2)
     state # 166: atom  37 (Cu ), wfc  3 (l=2 m= 3)
     state # 167: atom  37 (Cu ), wfc  3 (l=2 m= 4)
     state # 168: atom  37 (Cu ), wfc  3 (l=2 m= 5)
     state # 169: atom  38 (Cu ), wfc  1 (l=0 m= 1)
     state # 170: atom  38 (Cu ), wfc  2 (l=1 m= 1)
     state # 171: atom  38 (Cu ), wfc  2 (l=1 m= 2)
     state # 172: atom  38 (Cu ), wfc  2 (l=1 m= 3)
     state # 173: atom  38 (Cu ), wfc  3 (l=2 m= 1)
     state # 174: atom  38 (Cu ), wfc  3 (l=2 m= 2)
     state # 175: atom  38 (Cu ), wfc  3 (l=2 m= 3)
     state # 176: atom  38 (Cu ), wfc  3 (l=2 m= 4)
     state # 177: atom  38 (Cu ), wfc  3 (l=2 m= 5)
     state # 178: atom  39 (Mg ), wfc  1 (l=0 m= 1)
     state # 179: atom  39 (Mg ), wfc  2 (l=1 m= 1)
     state # 180: atom  39 (Mg ), wfc  2 (l=1 m= 2)
     state # 181: atom  39 (Mg ), wfc  2 (l=1 m= 3)
     state # 182: atom  40 (Mg ), wfc  1 (l=0 m= 1)
     state # 183: atom  40 (Mg ), wfc  2 (l=1 m= 1)
     state # 184: atom  40 (Mg ), wfc  2 (l=1 m= 2)
     state # 185: atom  40 (Mg ), wfc  2 (l=1 m= 3)
     state # 186: atom  41 (Mg ), wfc  1 (l=0 m= 1)
     state # 187: atom  41 (Mg ), wfc  2 (l=1 m= 1)
     state # 188: atom  41 (Mg ), wfc  2 (l=1 m= 2)
     state # 189: atom  41 (Mg ), wfc  2 (l=1 m= 3)
     state # 190: atom  42 (Mg ), wfc  1 (l=0 m= 1)
     state # 191: atom  42 (Mg ), wfc  2 (l=1 m= 1)
     state # 192: atom  42 (Mg ), wfc  2 (l=1 m= 2)
     state # 193: atom  42 (Mg ), wfc  2 (l=1 m= 3)
     state # 194: atom  43 (Al ), wfc  1 (l=0 m= 1)
     state # 195: atom  43 (Al ), wfc  2 (l=1 m= 1)
     state # 196: atom  43 (Al ), wfc  2 (l=1 m= 2)
     state # 197: atom  43 (Al ), wfc  2 (l=1 m= 3)
     state # 198: atom  44 (Al ), wfc  1 (l=0 m= 1)
     state # 199: atom  44 (Al ), wfc  2 (l=1 m= 1)
     state # 200: atom  44 (Al ), wfc  2 (l=1 m= 2)
     state # 201: atom  44 (Al ), wfc  2 (l=1 m= 3)
     state # 202: atom  45 (Al ), wfc  1 (l=0 m= 1)
     state # 203: atom  45 (Al ), wfc  2 (l=1 m= 1)
     state # 204: atom  45 (Al ), wfc  2 (l=1 m= 2)
     state # 205: atom  45 (Al ), wfc  2 (l=1 m= 3)
     state # 206: atom  46 (Al ), wfc  1 (l=0 m= 1)
     state # 207: atom  46 (Al ), wfc  2 (l=1 m= 1)
     state # 208: atom  46 (Al ), wfc  2 (l=1 m= 2)
     state # 209: atom  46 (Al ), wfc  2 (l=1 m= 3)
     state # 210: atom  47 (N  ), wfc  1 (l=0 m= 1)
     state # 211: atom  47 (N  ), wfc  2 (l=1 m= 1)
     state # 212: atom  47 (N  ), wfc  2 (l=1 m= 2)
     state # 213: atom  47 (N  ), wfc  2 (l=1 m= 3)
     state # 214: atom  48 (H  ), wfc  1 (l=0 m= 1)
     state # 215: atom  49 (N  ), wfc  1 (l=0 m= 1)
     state # 216: atom  49 (N  ), wfc  2 (l=1 m= 1)
     state # 217: atom  49 (N  ), wfc  2 (l=1 m= 2)
     state # 218: atom  49 (N  ), wfc  2 (l=1 m= 3)
     state # 219: atom  50 (N  ), wfc  1 (l=0 m= 1)
     state # 220: atom  50 (N  ), wfc  2 (l=1 m= 1)
     state # 221: atom  50 (N  ), wfc  2 (l=1 m= 2)
     state # 222: atom  50 (N  ), wfc  2 (l=1 m= 3)
     state # 223: atom  51 (C  ), wfc  1 (l=0 m= 1)
     state # 224: atom  51 (C  ), wfc  2 (l=1 m= 1)
     state # 225: atom  51 (C  ), wfc  2 (l=1 m= 2)
     state # 226: atom  51 (C  ), wfc  2 (l=1 m= 3)
     state # 227: atom  52 (C  ), wfc  1 (l=0 m= 1)
     state # 228: atom  52 (C  ), wfc  2 (l=1 m= 1)
     state # 229: atom  52 (C  ), wfc  2 (l=1 m= 2)
     state # 230: atom  52 (C  ), wfc  2 (l=1 m= 3)
     state # 231: atom  53 (H  ), wfc  1 (l=0 m= 1)
     state # 232: atom  54 (C  ), wfc  1 (l=0 m= 1)
     state # 233: atom  54 (C  ), wfc  2 (l=1 m= 1)
     state # 234: atom  54 (C  ), wfc  2 (l=1 m= 2)
     state # 235: atom  54 (C  ), wfc  2 (l=1 m= 3)
     state # 236: atom  55 (C  ), wfc  1 (l=0 m= 1)
     state # 237: atom  55 (C  ), wfc  2 (l=1 m= 1)
     state # 238: atom  55 (C  ), wfc  2 (l=1 m= 2)
     state # 239: atom  55 (C  ), wfc  2 (l=1 m= 3)
     state # 240: atom  56 (H  ), wfc  1 (l=0 m= 1)
     state # 241: atom  57 (C  ), wfc  1 (l=0 m= 1)
     state # 242: atom  57 (C  ), wfc  2 (l=1 m= 1)
     state # 243: atom  57 (C  ), wfc  2 (l=1 m= 2)
     state # 244: atom  57 (C  ), wfc  2 (l=1 m= 3)
     state # 245: atom  58 (C  ), wfc  1 (l=0 m= 1)
     state # 246: atom  58 (C  ), wfc  2 (l=1 m= 1)
     state # 247: atom  58 (C  ), wfc  2 (l=1 m= 2)
     state # 248: atom  58 (C  ), wfc  2 (l=1 m= 3)
     state # 249: atom  59 (H  ), wfc  1 (l=0 m= 1)
     state # 250: atom  60 (H  ), wfc  1 (l=0 m= 1)

 k =  -0.5000000000  0.2161695657 -0.1052631579
==== e(   1) =   -25.07531 eV ==== 
     psi = 0.265*[#  38]+0.207*[#  29]+0.140*[#  33]+0.058*[#  39]+0.045*[#  21]
          +0.038*[#  25]+0.036*[#  22]+0.033*[#  36]+0.030*[#  26]+0.026*[#  35]
          +0.024*[#  32]+0.022*[#  37]+0.019*[#  31]+0.015*[#  55]+0.004*[#  54]
          +0.002*[#  13]+0.002*[#  28]+0.002*[#  17]+0.002*[#  12]+0.002*[#  16]
          +0.002*[#  24]+0.002*[#  27]+0.001*[#  23]
    |psi|^2 = 0.986
==== e(   2) =   -25.06997 eV ==== 
     psi = 0.265*[# 210]+0.207*[# 219]+0.140*[# 215]+0.058*[# 211]+0.045*[# 227]
          +0.038*[# 223]+0.036*[# 228]+0.030*[# 217]+0.030*[# 224]+0.029*[# 218]
          +0.022*[# 214]+0.022*[# 221]+0.021*[# 222]+0.015*[# 195]+0.004*[# 194]
          +0.002*[# 237]+0.002*[# 233]+0.002*[# 236]+0.002*[# 225]+0.002*[# 226]
          +0.002*[# 232]+0.001*[# 229]+0.001*[# 230]
    |psi|^2 = 0.986
==== e(   3) =   -20.28822 eV ==== 
     psi = 0.299*[#  29]+0.230*[#  33]+0.087*[#  41]+0.066*[#  40]+0.054*[#  21]
          +0.051*[#  37]+0.027*[#  26]+0.026*[#  22]+0.026*[#  25]+0.019*[#  38]
          +0.013*[#  24]+0.013*[#  28]+0.010*[#  23]+0.010*[#  36]+0.010*[#  27]
          +0.009*[#  12]+0.008*[#  35]+0.005*[#  32]+0.004*[#  13]+0.004*[#  30]
          +0.003*[#  31]+0.003*[#  17]+0.002*[#  16]+0.002*[#  39]+0.001*[#  11]
          
    |psi|^2 = 0.988
==== e(   4) =   -20.28529 eV ==== 
     psi = 0.299*[# 219]+0.230*[# 215]+0.077*[# 212]+0.076*[# 213]+0.054*[# 227]
          +0.052*[# 214]+0.027*[# 224]+0.026*[# 228]+0.026*[# 223]+0.019*[# 210]
          +0.012*[# 229]+0.012*[# 230]+0.011*[# 225]+0.011*[# 226]+0.009*[# 217]
          +0.009*[# 218]+0.009*[# 236]+0.004*[# 237]+0.004*[# 222]+0.004*[# 220]
          +0.004*[# 221]+0.003*[# 233]+0.002*[# 232]+0.002*[# 211]+0.001*[# 240]
          
    |psi|^2 = 0.988
==== e(   5) =   -19.00488 eV ==== 
     psi = 0.139*[#  25]+0.122*[#  21]+0.101*[#  12]+0.099*[#  16]+0.084*[#   3]
          +0.081*[#   7]+0.060*[#  38]+0.053*[#  30]+0.040*[#  34]+0.024*[#  22]
          +0.017*[#   4]+0.017*[#   8]+0.014*[#  15]+0.014*[#  26]+0.014*[#  19]
          +0.012*[#  11]+0.012*[#  20]+0.011*[#   1]+0.010*[#   2]+0.010*[#  14]
          +0.010*[#  18]+0.005*[#  24]+0.005*[#  33]+0.004*[#  29]+0.003*[#  23]
          +0.003*[#  28]+0.002*[#  10]+0.002*[#   6]+0.002*[#  27]+0.002*[#  41]
          +0.002*[#  40]+0.002*[#   9]+0.002*[#  55]+0.001*[#   5]+0.001*[#  37]
          
    |psi|^2 = 0.983
==== e(   6) =   -19.00199 eV ==== 
     psi = 0.139*[# 223]+0.122*[# 227]+0.101*[# 236]+0.099*[# 232]+0.084*[# 245]
          +0.081*[# 241]+0.060*[# 210]+0.053*[# 220]+0.040*[# 216]+0.024*[# 228]
          +0.017*[# 246]+0.017*[# 242]+0.014*[# 224]+0.012*[# 240]+0.012*[# 231]
          +0.012*[# 238]+0.012*[# 239]+0.012*[# 235]+0.012*[# 234]+0.011*[# 250]
          +0.010*[# 249]+0.005*[# 215]+0.004*[# 219]+0.004*[# 229]+0.004*[# 230]
          +0.002*[# 225]+0.002*[# 226]+0.002*[# 212]+0.002*[# 244]+0.002*[# 213]
          +0.002*[# 243]+0.002*[# 195]+0.002*[# 247]+0.002*[# 248]
    |psi|^2 = 0.983
==== e(   7) =   -16.87492 eV ==== 
     psi = 0.147*[#   3]+0.134*[#   7]+0.123*[#  38]+0.094*[#  30]+0.068*[#  34]
          +0.063*[#  25]+0.050*[#  21]+0.042*[#  17]+0.040*[#  13]+0.030*[#  22]
          +0.029*[#  26]+0.023*[#   1]+0.022*[#  12]+0.021*[#   2]+0.013*[#  33]
          +0.013*[#  16]+0.007*[#  10]+0.007*[#  39]+0.006*[#  55]+0.005*[#   6]
          +0.005*[#   9]+0.004*[#  24]+0.004*[#   5]+0.003*[#  23]+0.003*[#  54]
          +0.003*[#  11]+0.002*[#  28]+0.002*[#  32]+0.002*[#  41]+0.002*[#  15]
          +0.002*[#  31]+0.002*[#  40]+0.002*[#  19]+0.002*[#  20]+0.002*[#  27]
          +0.001*[#  14]+0.001*[#  18]
    |psi|^2 = 0.986
==== e(   8) =   -16.87188 eV ==== 
     psi = 0.147*[# 245]+0.135*[# 241]+0.123*[# 210]+0.094*[# 220]+0.068*[# 216]
          +0.063*[# 223]+0.050*[# 227]+0.042*[# 233]+0.040*[# 237]+0.030*[# 228]
          +0.029*[# 224]+0.023*[# 250]+0.022*[# 236]+0.021*[# 249]+0.013*[# 215]
          +0.013*[# 232]+0.007*[# 211]+0.006*[# 195]+0.006*[# 243]+0.006*[# 244]
          +0.004*[# 247]+0.004*[# 248]+0.004*[# 229]+0.004*[# 230]+0.003*[# 194]
          +0.003*[# 240]+0.002*[# 212]+0.002*[# 221]+0.002*[# 222]+0.002*[# 225]
          +0.002*[# 226]+0.002*[# 213]+0.002*[# 231]+0.001*[# 234]+0.002*[# 238]
          +0.002*[# 239]+0.001*[# 235]
    |psi|^2 = 0.986
==== e(   9) =   -16.10451 eV ==== 
     psi = 0.197*[#  16]+0.190*[#  12]+0.061*[#   7]+0.041*[#  21]+0.038*[#   3]
          +0.038*[#  25]+0.034*[#  11]+0.033*[#  20]+0.032*[#  22]+0.028*[#  26]
          +0.026*[#   6]+0.021*[#  10]+0.021*[#  30]+0.020*[#  28]+0.019*[#   5]
          +0.018*[#  34]+0.018*[#  24]+0.017*[#   4]+0.017*[#   8]+0.016*[#   9]
          +0.015*[#  27]+0.014*[#  41]+0.014*[#  23]+0.012*[#  29]+0.011*[#   2]
          +0.010*[#  40]+0.007*[#   1]+0.006*[#  37]+0.003*[#  33]+0.002*[#  36]
          +0.001*[#  35]+0.001*[#  38]+0.001*[#  19]
    |psi|^2 = 0.984
==== e(  10) =   -16.10145 eV ==== 
     psi = 0.197*[# 232]+0.190*[# 236]+0.061*[# 241]+0.041*[# 227]+0.039*[# 223]
          +0.038*[# 245]+0.033*[# 231]+0.033*[# 240]+0.032*[# 228]+0.028*[# 224]
          +0.023*[# 248]+0.023*[# 247]+0.021*[# 220]+0.018*[# 243]+0.018*[# 216]
          +0.018*[# 244]+0.017*[# 226]+0.017*[# 225]+0.017*[# 242]+0.017*[# 246]
          +0.016*[# 229]+0.016*[# 230]+0.012*[# 212]+0.012*[# 213]+0.012*[# 219]
          +0.011*[# 249]+0.007*[# 250]+0.006*[# 214]+0.003*[# 215]+0.002*[# 217]
          +0.002*[# 218]+0.001*[# 210]
    |psi|^2 = 0.984
==== e(  11) =   -13.79034 eV ==== 
     psi = 0.101*[#  26]+0.090*[#   3]+0.081*[#  38]+0.070*[#  33]+0.057*[#  22]
          +0.052*[#  32]+0.048*[#   7]+0.038*[#  13]+0.036*[#  31]+0.034*[#   8]
          +0.032*[#  29]+0.032*[#  37]+0.031*[#   1]+0.031*[#  16]+0.030*[#   4]
          +0.027*[#  34]+0.026*[#  21]+0.017*[#   2]+0.016*[#  10]+0.014*[#  12]
          +0.013*[#  17]+0.013*[#  39]+0.012*[#   9]+0.010*[#  28]+0.009*[#  30]
          +0.008*[#  27]+0.006*[#  41]+0.006*[#  25]+0.006*[#  40]+0.006*[#   6]
          +0.005*[#  20]+0.005*[#  24]+0.005*[#  55]+0.004*[#   5]+0.004*[#  54]
          +0.003*[#  23]+0.002*[#  11]+0.002*[#  36]+0.001*[#  35]
    |psi|^2 = 0.985
==== e(  12) =   -13.78953 eV ==== 
     psi = 0.101*[# 224]+0.090*[# 245]+0.081*[# 210]+0.070*[# 215]+0.057*[# 228]
          +0.047*[# 241]+0.046*[# 222]+0.043*[# 221]+0.038*[# 237]+0.034*[# 242]
          +0.032*[# 214]+0.032*[# 219]+0.031*[# 250]+0.030*[# 232]+0.029*[# 246]
          +0.027*[# 216]+0.027*[# 227]+0.017*[# 249]+0.014*[# 243]+0.014*[# 236]
          +0.014*[# 244]+0.013*[# 233]+0.012*[# 211]+0.010*[# 225]+0.009*[# 226]
          +0.008*[# 220]+0.007*[# 212]+0.006*[# 223]+0.005*[# 213]+0.005*[# 231]
          +0.005*[# 248]+0.005*[# 247]+0.005*[# 195]+0.004*[# 230]+0.004*[# 229]
          +0.004*[# 194]+0.002*[# 240]+0.002*[# 217]+0.001*[# 218]
    |psi|^2 = 0.985
==== e(  13) =   -13.38824 eV ==== 
     psi = 0.138*[# 220]+0.084*[# 214]+0.072*[# 222]+0.068*[# 221]+0.061*[# 241]
          +0.056*[# 233]+0.054*[# 236]+0.047*[# 225]+0.047*[# 228]+0.046*[# 226]
          +0.032*[# 215]+0.024*[# 248]+0.024*[# 247]+0.022*[# 227]+0.022*[# 223]
          +0.020*[# 216]+0.020*[# 249]+0.019*[# 240]+0.016*[# 219]+0.016*[# 246]
          +0.014*[# 232]+0.014*[# 211]+0.009*[# 242]+0.007*[# 230]+0.007*[# 217]
          +0.007*[# 229]+0.007*[# 218]+0.006*[# 231]+0.003*[# 237]+0.002*[# 213]
          +0.002*[# 238]+0.002*[# 239]+0.002*[# 212]+0.002*[# 195]+0.002*[# 234]
          +0.002*[# 235]
    |psi|^2 = 0.980
==== e(  14) =   -13.38788 eV ==== 
     psi = 0.138*[#  30]+0.084*[#  37]+0.084*[#  32]+0.060*[#   7]+0.056*[#  31]
          +0.056*[#  17]+0.054*[#  12]+0.053*[#  28]+0.046*[#  22]+0.041*[#  27]
          +0.032*[#  33]+0.027*[#   6]+0.022*[#  21]+0.022*[#  25]+0.020*[#  34]
          +0.020*[#   5]+0.020*[#   2]+0.019*[#  11]+0.017*[#  29]+0.016*[#   4]
          +0.014*[#  16]+0.013*[#  39]+0.009*[#   8]+0.008*[#  24]+0.008*[#  36]
          +0.006*[#  35]+0.006*[#  20]+0.006*[#  23]+0.003*[#  13]+0.003*[#  41]
          +0.003*[#  15]+0.002*[#  14]+0.002*[#  19]+0.002*[#  40]+0.002*[#  55]
          +0.002*[#  18]
    |psi|^2 = 0.980
==== e(  15) =   -12.93604 eV ==== 
     psi = 0.103*[#  34]+0.090*[#  41]+0.069*[#  40]+0.068*[#  13]+0.066*[#  32]
          +0.060*[#  24]+0.056*[#  30]+0.053*[#   3]+0.048*[#  31]+0.045*[#  23]
          +0.040*[#  25]+0.039*[#  17]+0.029*[#  10]+0.029*[#  16]+0.022*[#   9]
          +0.021*[#   7]+0.021*[#  33]+0.019*[#   1]+0.015*[#  37]+0.014*[#  21]
          +0.012*[#  20]+0.008*[#   2]+0.006*[#  39]+0.005*[#  26]+0.004*[#   6]
          +0.004*[#  29]+0.004*[#   8]+0.003*[#   5]+0.003*[#  12]+0.003*[#  15]
          +0.003*[#  11]+0.002*[#  19]+0.002*[#  14]+0.002*[#   4]+0.002*[#  18]
          +0.002*[#  28]+0.002*[#  55]+0.001*[#  27]+0.001*[#  38]
    |psi|^2 = 0.979
==== e(  16) =   -12.93243 eV ==== 
     psi = 0.104*[# 216]+0.081*[# 212]+0.079*[# 213]+0.068*[# 237]+0.057*[# 222]
          +0.056*[# 220]+0.056*[# 221]+0.053*[# 245]+0.052*[# 229]+0.052*[# 230]
          +0.041*[# 223]+0.040*[# 233]+0.028*[# 232]+0.026*[# 243]+0.026*[# 244]
          +0.021*[# 241]+0.020*[# 215]+0.020*[# 250]+0.014*[# 214]+0.014*[# 227]
          +0.012*[# 231]+0.008*[# 249]+0.006*[# 211]+0.005*[# 224]+0.004*[# 247]
          +0.004*[# 248]+0.004*[# 219]+0.004*[# 242]+0.003*[# 236]+0.003*[# 240]
          +0.002*[# 238]+0.002*[# 239]+0.002*[# 235]+0.002*[# 234]+0.002*[# 246]
          +0.002*[# 195]+0.001*[# 210]+0.001*[# 225]+0.001*[# 226]
    |psi|^2 = 0.979
==== e(  17) =   -11.16121 eV ==== 
     psi = 0.064*[#  32]+0.063*[#  11]+0.060*[#  20]+0.053*[#  15]+0.052*[#  16]
          +0.050*[#  19]+0.047*[#  37]+0.047*[#  12]+0.043*[#  31]+0.041*[#  14]
          +0.037*[#   6]+0.037*[#  18]+0.036*[#  39]+0.032*[#  22]+0.031*[#  10]
          +0.030*[#  30]+0.028*[#   5]+0.027*[#  28]+0.023*[#   9]+0.021*[#  24]
          +0.020*[#  27]+0.019*[#  13]+0.017*[#  23]+0.015*[#  25]+0.014*[#  34]
          +0.011*[#  21]+0.010*[#  26]+0.009*[#  41]+0.008*[#  17]+0.007*[#  40]
          +0.005*[#   1]+0.004*[#  54]+0.004*[#  55]+0.004*[#  38]+0.002*[#   2]
          
    |psi|^2 = 0.977
==== e(  18) =   -11.15940 eV ==== 
     psi = 0.063*[# 240]+0.060*[# 231]+0.055*[# 222]+0.052*[# 232]+0.052*[# 221]
          +0.048*[# 238]+0.047*[# 214]+0.047*[# 236]+0.047*[# 239]+0.044*[# 235]
          +0.043*[# 234]+0.036*[# 211]+0.033*[# 247]+0.033*[# 248]+0.032*[# 228]
          +0.030*[# 220]+0.027*[# 243]+0.027*[# 244]+0.023*[# 225]+0.023*[# 226]
          +0.020*[# 229]+0.019*[# 237]+0.018*[# 230]+0.015*[# 223]+0.014*[# 216]
          +0.011*[# 227]+0.010*[# 224]+0.008*[# 212]+0.008*[# 213]+0.008*[# 233]
          +0.005*[# 250]+0.004*[# 194]+0.004*[# 195]+0.004*[# 210]+0.002*[# 249]
          
    |psi|^2 = 0.977
==== e(  19) =   -10.42631 eV ==== 
     psi = 0.086*[#  30]+0.086*[#  26]+0.083*[#  34]+0.077*[#  22]+0.072*[#  13]
          +0.065*[#  17]+0.058*[#   7]+0.057*[#   2]+0.053*[#   3]+0.052*[#   1]
          +0.043*[#  41]+0.030*[#  40]+0.027*[#  16]+0.026*[#   8]+0.023*[#  12]
          +0.022*[#   6]+0.018*[#   4]+0.017*[#  10]+0.016*[#   5]+0.013*[#  20]
          +0.012*[#   9]+0.011*[#  11]+0.008*[#  33]+0.006*[#  39]+0.004*[#  29]
          +0.003*[#  38]+0.003*[#  31]+0.002*[#  32]+0.002*[#  24]+0.001*[#  54]
          +0.001*[#  23]+0.001*[#  28]+0.001*[#  15]
    |psi|^2 = 0.987
==== e(  20) =   -10.42229 eV ==== 
     psi = 0.086*[# 220]+0.086*[# 224]+0.083*[# 216]+0.077*[# 228]+0.072*[# 237]
          +0.065*[# 233]+0.058*[# 241]+0.057*[# 249]+0.053*[# 245]+0.052*[# 250]
          +0.038*[# 213]+0.035*[# 212]+0.027*[# 232]+0.026*[# 242]+0.023*[# 236]
          +0.019*[# 247]+0.019*[# 248]+0.018*[# 246]+0.015*[# 244]+0.014*[# 243]
          +0.013*[# 231]+0.011*[# 240]+0.008*[# 215]+0.006*[# 211]+0.004*[# 219]
          +0.003*[# 210]+0.003*[# 221]+0.002*[# 222]+0.002*[# 230]+0.001*[# 194]
          +0.001*[# 229]+0.001*[# 226]
    |psi|^2 = 0.987
==== e(  21) =    -9.29663 eV ==== 
     psi = 0.061*[#  39]+0.053*[#  40]+0.052*[#   8]+0.049*[#   4]+0.038*[# 211]
          +0.037*[#  36]+0.036*[#  32]+0.033*[#  31]+0.033*[# 242]+0.031*[#  23]
          +0.031*[# 246]+0.026*[# 212]+0.025*[#  28]+0.023*[#  13]+0.022*[# 218]
          +0.022*[# 222]+0.021*[#  17]+0.021*[#  41]+0.020*[#  54]+0.016*[# 229]
          +0.015*[# 221]+0.014*[# 226]+0.014*[# 237]+0.014*[# 194]+0.014*[# 213]
          +0.013*[#   2]+0.013*[# 233]+0.012*[#  38]+0.011*[#   1]+0.009*[#  14]
          +0.008*[#  21]+0.008*[# 249]+0.008*[#  19]+0.008*[#  35]+0.008*[# 210]
          +0.007*[#  25]+0.007*[# 250]+0.006*[# 238]+0.005*[# 227]+0.005*[# 235]
          +0.005*[# 223]+0.004*[#  27]+0.004*[# 122]+0.004*[#  24]+0.004*[#  94]
          +0.004*[# 126]+0.003*[# 103]+0.003*[#  55]+0.003*[#  34]+0.003*[# 101]
          +0.003*[# 144]+0.003*[# 230]+0.003*[#   6]+0.002*[# 153]+0.002*[# 217]
          +0.002*[# 151]+0.002*[#  37]+0.002*[#   9]+0.002*[#  30]+0.002*[#  73]
          +0.002*[# 216]+0.002*[#  70]+0.002*[#  92]+0.002*[# 195]+0.002*[#  68]
          +0.001*[#  11]+0.001*[#  52]+0.001*[#  64]+0.001*[#  85]+0.001*[# 138]
          +0.001*[# 142]+0.001*[# 162]+0.001*[#  74]+0.001*[# 169]+0.001*[# 178]
          +0.001*[# 181]+0.001*[# 184]+0.001*[# 225]+0.001*[#  29]+0.001*[# 110]
          +0.001*[# 120]+0.001*[# 192]+0.001*[# 214]+0.001*[# 220]+0.001*[# 248]
          +0.001*[#  20]+0.001*[#  60]+0.001*[# 132]+0.001*[# 243]
    |psi|^2 = 0.981
==== e(  22) =    -9.28323 eV ==== 
     psi = 0.057*[# 212]+0.054*[# 211]+0.049*[# 222]+0.047*[# 242]+0.045*[# 246]
          +0.044*[# 218]+0.042*[#  40]+0.036*[# 221]+0.034*[# 213]+0.034*[# 229]
          +0.029*[#  31]+0.029*[#  39]+0.029*[# 226]+0.028*[#  32]+0.026*[#  36]
          +0.026*[#   8]+0.024*[#   4]+0.024*[#  23]+0.021*[# 237]+0.020*[# 233]
          +0.019*[#  41]+0.018*[#  28]+0.015*[# 194]+0.012*[#  13]+0.012*[# 249]
          +0.011*[#  17]+0.011*[# 210]+0.010*[# 250]+0.010*[# 238]+0.009*[# 230]
          +0.008*[#  35]+0.008*[# 217]+0.008*[# 235]+0.008*[#  54]+0.008*[# 227]
          +0.007*[# 223]+0.006*[#   2]+0.006*[#  38]+0.006*[#  14]+0.006*[#   1]
          +0.005*[#  19]+0.005*[#  27]+0.005*[# 225]+0.005*[#  24]+0.005*[# 195]
          +0.004*[#  21]+0.004*[#  25]+0.003*[#  55]+0.003*[# 216]+0.003*[# 248]
          +0.002*[# 243]+0.002*[# 214]+0.002*[#   6]+0.002*[# 144]+0.002*[# 220]
          +0.002*[# 153]+0.001*[#   9]+0.001*[#  34]+0.001*[# 151]+0.001*[# 181]
          +0.001*[#  37]+0.001*[# 219]+0.001*[# 240]
    |psi|^2 = 0.980
==== e(  23) =    -9.21203 eV ==== 
     psi = 0.064*[#  31]+0.054*[#  41]+0.049*[#  40]+0.046*[#  35]+0.042*[# 213]
          +0.039*[# 221]+0.037*[#  32]+0.036*[#   4]+0.036*[#   8]+0.033*[#  39]
          +0.032*[# 222]+0.031*[#  24]+0.031*[#  27]+0.030*[# 212]+0.029*[# 217]
          +0.023*[# 230]+0.019*[# 225]+0.019*[# 242]+0.019*[# 246]+0.019*[#  23]
          +0.018*[# 211]+0.015*[#  13]+0.014*[#  17]+0.012*[#  36]+0.012*[# 218]
          +0.011*[# 229]+0.010*[#  54]+0.010*[#  15]+0.009*[#   1]+0.009*[#   2]
          +0.009*[#  18]+0.008*[#  28]+0.008*[#  38]+0.008*[# 237]+0.008*[# 226]
          +0.008*[# 233]+0.006*[# 194]+0.006*[# 239]+0.006*[#  21]+0.005*[# 234]
          +0.005*[#  25]+0.005*[# 249]+0.005*[# 250]+0.004*[# 210]+0.003*[# 122]
          +0.003*[# 227]+0.003*[# 103]+0.003*[# 126]+0.003*[# 223]+0.002*[#  92]
          +0.002*[# 153]+0.002*[#   5]+0.002*[#  60]+0.002*[# 142]+0.001*[#  10]
          +0.002*[#  94]+0.001*[# 134]+0.001*[# 114]+0.001*[# 188]+0.001*[#  20]
          +0.001*[#  29]+0.001*[#  56]+0.001*[# 162]+0.001*[# 169]+0.001*[#  11]
          +0.001*[#  30]+0.001*[#  34]+0.001*[#  37]+0.001*[#  57]+0.001*[#  62]
          +0.001*[#  73]+0.001*[#  74]+0.001*[#  85]+0.001*[# 247]
    |psi|^2 = 0.980
==== e(  24) =    -9.19940 eV ==== 
     psi = 0.054*[# 213]+0.049*[# 221]+0.049*[# 246]+0.049*[# 242]+0.044*[# 211]
          +0.041*[# 217]+0.037*[# 222]+0.035*[#   4]+0.035*[#   8]+0.034*[# 230]
          +0.033*[#  31]+0.033*[# 212]+0.030*[#  39]+0.028*[#  41]+0.028*[# 225]
          +0.026*[#  35]+0.022*[#  40]+0.021*[# 237]+0.021*[# 233]+0.019*[#  24]
          +0.018*[#  27]+0.017*[#  32]+0.015*[#  13]+0.015*[#  17]+0.012*[# 250]
          +0.012*[# 249]+0.011*[# 210]+0.011*[# 218]+0.011*[# 194]+0.010*[# 229]
          +0.010*[# 239]+0.010*[# 234]+0.009*[#   1]+0.009*[#   2]+0.008*[# 227]
          +0.008*[#  38]+0.007*[#  23]+0.007*[#  54]+0.007*[#  15]+0.007*[# 226]
          +0.006*[# 223]+0.006*[#  18]+0.006*[#  21]+0.005*[#  25]+0.004*[#  36]
          +0.003*[# 195]+0.003*[#  28]+0.002*[#  55]+0.002*[# 247]+0.002*[# 244]
          +0.002*[# 214]+0.001*[# 216]+0.002*[# 219]+0.001*[# 220]+0.002*[# 231]
          +0.001*[#   5]+0.001*[#  10]+0.001*[# 153]+0.001*[# 240]+0.001*[#  20]
          +0.001*[#  29]+0.001*[#  37]+0.001*[#  30]+0.001*[# 197]+0.001*[#  34]
          
    |psi|^2 = 0.980
==== e(  25) =    -8.93072 eV ==== 
     psi = 0.056*[# 118]+0.056*[# 130]+0.033*[#  76]+0.033*[# 171]+0.032*[# 114]
          +0.032*[# 134]+0.030*[#  83]+0.030*[# 160]+0.022*[#  72]+0.022*[# 180]
          +0.022*[# 110]+0.022*[# 138]+0.019*[# 103]+0.019*[# 153]+0.018*[# 124]
          +0.018*[# 128]+0.017*[#  50]+0.017*[# 198]+0.017*[#  92]+0.017*[# 142]
          +0.017*[#  66]+0.017*[# 182]+0.015*[#  94]+0.015*[# 144]+0.013*[#  60]
          +0.013*[# 188]+0.013*[#  84]+0.013*[# 161]+0.012*[# 101]+0.012*[# 151]
          +0.011*[#  51]+0.011*[# 199]+0.010*[# 112]+0.010*[# 140]+0.010*[#  42]
          +0.010*[#  64]+0.010*[# 192]+0.010*[# 206]+0.010*[#  62]+0.010*[# 190]
          +0.008*[#  67]+0.008*[#  93]+0.008*[# 143]+0.008*[# 183]+0.008*[# 116]
          +0.008*[# 136]+0.007*[#  58]+0.007*[# 186]+0.007*[#  46]+0.007*[# 202]
          +0.007*[#  69]+0.007*[# 185]+0.006*[#  43]+0.006*[# 207]+0.005*[#  56]
          +0.005*[# 102]+0.005*[# 152]+0.005*[# 196]+0.005*[#  63]+0.005*[# 191]
          +0.004*[#  47]+0.004*[# 203]+0.004*[# 121]+0.004*[# 133]+0.004*[#  65]
          +0.004*[# 193]+0.004*[#  48]+0.004*[#  86]+0.004*[# 163]+0.004*[# 204]
          +0.003*[#  59]+0.003*[# 187]+0.003*[#  44]+0.003*[#  61]+0.003*[# 189]
          +0.003*[# 208]+0.002*[# 117]+0.002*[# 137]+0.002*[#  95]+0.002*[# 145]
          +0.002*[# 113]+0.002*[# 141]+0.001*[# 104]+0.001*[# 154]
    |psi|^2 = 0.998
==== e(  26) =    -8.89274 eV ==== 
     psi = 0.046*[# 122]+0.046*[# 126]+0.031*[#  85]+0.031*[# 162]+0.030*[# 110]
          +0.030*[# 138]+0.027*[#  74]+0.027*[# 169]+0.021*[# 114]+0.021*[# 134]
          +0.020*[#  68]+0.020*[# 184]+0.015*[# 120]+0.015*[# 132]+0.015*[#  55]
          +0.015*[#  94]+0.015*[# 101]+0.015*[# 144]+0.015*[# 195]+0.015*[# 151]
          +0.014*[#  70]+0.014*[# 178]+0.013*[# 246]+0.012*[#   4]+0.011*[#  75]
          +0.011*[# 170]+0.011*[#  64]+0.011*[# 242]+0.011*[#   8]+0.011*[# 192]
          +0.010*[#  46]+0.010*[#  92]+0.010*[# 103]+0.010*[# 142]+0.010*[# 202]
          +0.010*[# 153]+0.009*[# 116]+0.009*[# 136]+0.009*[#  13]+0.009*[#  17]
          +0.009*[# 233]+0.009*[# 237]+0.009*[#  58]+0.009*[# 186]+0.008*[# 102]
          +0.008*[# 152]+0.008*[#  71]+0.008*[# 179]+0.007*[#  60]+0.007*[# 188]
          +0.007*[#  42]+0.007*[# 206]+0.006*[# 112]+0.006*[# 140]+0.006*[#  54]
          +0.006*[#  93]+0.006*[# 143]+0.006*[# 194]+0.006*[#  47]+0.006*[#  62]
          +0.006*[# 203]+0.006*[# 190]+0.005*[#  73]+0.005*[# 181]+0.005*[#  52]
          +0.005*[# 200]+0.004*[#  59]+0.004*[# 187]+0.004*[#  43]+0.004*[# 125]
          +0.004*[# 129]+0.004*[# 207]+0.004*[#  61]+0.004*[# 189]+0.003*[#  44]
          +0.003*[# 208]+0.003*[#  63]+0.003*[# 191]+0.003*[#  77]+0.003*[# 172]
          +0.003*[#   1]+0.003*[# 250]+0.003*[#  65]+0.003*[# 193]+0.002*[#  48]
          +0.002*[# 204]+0.002*[# 113]+0.002*[# 141]+0.002*[#  38]+0.002*[#  39]
          +0.002*[# 104]+0.002*[# 154]+0.002*[# 211]+0.002*[# 210]+0.002*[#   2]
          +0.002*[# 249]+0.001*[#  21]+0.002*[#  26]+0.001*[# 224]+0.001*[#  24]
          +0.001*[#  95]+0.001*[# 117]+0.001*[# 137]+0.001*[# 227]+0.001*[# 145]
          +0.001*[# 230]+0.001*[#  10]+0.001*[#  22]+0.001*[#  28]+0.001*[# 225]
          +0.001*[# 228]
    |psi|^2 = 0.996
==== e(  27) =    -8.52114 eV ==== 
     psi = 0.061*[#  24]+0.054*[#  28]+0.047*[#  10]+0.045*[#  27]+0.043*[#  23]
          +0.040*[#   6]+0.035*[#  15]+0.034*[#   9]+0.031*[#   5]+0.031*[#  11]
          +0.028*[#  14]+0.025*[#   2]+0.025*[#  13]+0.021*[# 230]+0.021*[# 229]
          +0.021*[#  37]+0.021*[# 225]+0.020*[# 226]+0.018*[#   4]+0.017*[# 244]
          +0.016*[#  17]+0.016*[#  32]+0.016*[# 243]+0.015*[#  25]+0.015*[# 247]
          +0.014*[# 248]+0.014*[#   1]+0.013*[#  31]+0.013*[# 238]+0.013*[# 240]
          +0.012*[#   8]+0.012*[# 239]+0.011*[#  30]+0.011*[# 237]+0.010*[# 249]
          +0.009*[#  35]+0.009*[#  36]+0.009*[# 214]+0.008*[#  33]+0.007*[# 233]
          +0.007*[# 246]+0.006*[#  41]+0.006*[# 221]+0.006*[# 223]+0.006*[# 222]
          +0.005*[# 250]+0.005*[# 242]+0.004*[# 220]+0.004*[#  34]+0.004*[# 217]
          +0.003*[# 218]+0.003*[# 215]+0.003*[#  40]+0.003*[#  39]+0.003*[#  20]
          +0.002*[#   3]+0.002*[#  18]+0.002*[#  19]+0.002*[# 213]+0.002*[# 212]
          +0.002*[# 216]+0.001*[# 211]+0.001*[#  12]+0.001*[#  29]+0.001*[#  54]
          +0.001*[# 231]
    |psi|^2 = 0.983
==== e(  28) =    -8.51762 eV ==== 
     psi = 0.052*[# 230]+0.051*[# 225]+0.051*[# 229]+0.047*[# 226]+0.041*[# 244]
          +0.039*[# 243]+0.036*[# 247]+0.035*[# 248]+0.033*[# 238]+0.032*[# 240]
          +0.031*[# 239]+0.026*[# 249]+0.025*[#  24]+0.022*[# 237]+0.021*[#  28]
          +0.021*[# 214]+0.021*[# 246]+0.019*[#  10]+0.018*[#  27]+0.017*[#  23]
          +0.016*[#   6]+0.016*[# 223]+0.015*[# 221]+0.015*[# 250]+0.014*[#  15]
          +0.015*[# 233]+0.014*[# 222]+0.014*[# 242]+0.013*[#   9]+0.013*[#  11]
          +0.012*[#   5]+0.012*[#  14]+0.011*[# 220]+0.011*[#   2]+0.010*[# 217]
          +0.009*[#   4]+0.009*[#  13]+0.009*[#  37]+0.008*[# 215]+0.008*[# 218]
          +0.007*[#  32]+0.006*[#   1]+0.006*[#   8]+0.007*[#  25]+0.006*[#  31]
          +0.005*[#  17]+0.005*[# 213]+0.005*[#  30]+0.004*[# 216]+0.004*[#  35]
          +0.004*[# 212]+0.004*[#  36]+0.003*[#  33]+0.003*[#  41]+0.003*[# 211]
          +0.002*[# 231]+0.002*[# 234]+0.002*[# 245]+0.002*[#  34]+0.002*[# 235]
          +0.001*[#  40]+0.001*[# 219]
    |psi|^2 = 0.983
==== e(  29) =    -8.28644 eV ==== 
     psi = 0.035*[# 122]+0.035*[# 126]+0.034*[# 114]+0.034*[# 134]+0.030*[#  65]
          +0.030*[#  73]+0.030*[# 181]+0.030*[# 193]+0.022*[#  92]+0.022*[# 142]
          +0.020*[# 103]+0.020*[# 153]+0.019*[#  74]+0.019*[# 169]+0.018*[#  85]
          +0.018*[# 162]+0.017*[# 125]+0.017*[# 129]+0.016*[# 117]+0.016*[# 137]
          +0.016*[#  54]+0.016*[# 194]+0.013*[#  42]+0.013*[# 206]+0.009*[# 120]
          +0.009*[# 132]+0.009*[#   8]+0.009*[# 112]+0.009*[# 140]+0.009*[# 242]
          +0.008*[#   4]+0.008*[# 246]+0.007*[#  75]+0.007*[# 170]+0.007*[#  43]
          +0.007*[# 207]+0.007*[#  93]+0.007*[# 143]+0.006*[#  55]+0.006*[# 195]
          +0.006*[#  77]+0.006*[# 172]+0.006*[# 118]+0.006*[# 130]+0.006*[#  95]
          +0.006*[# 110]+0.006*[# 138]+0.006*[# 145]+0.006*[#  19]+0.006*[#  68]
          +0.006*[# 184]+0.005*[#  60]+0.005*[#  61]+0.005*[# 188]+0.005*[# 189]
          +0.005*[#  22]+0.005*[#  69]+0.005*[# 185]+0.005*[# 228]+0.005*[#  20]
          +0.004*[#  39]+0.004*[#  70]+0.004*[# 178]+0.004*[# 211]+0.004*[# 235]
          +0.004*[# 101]+0.004*[# 151]+0.004*[#   1]+0.004*[# 231]+0.004*[#  18]
          +0.004*[#  62]+0.004*[# 190]+0.004*[# 234]+0.004*[#  13]+0.004*[#  52]
          +0.004*[# 200]+0.004*[# 250]+0.004*[#  94]+0.004*[# 144]+0.004*[# 237]
          +0.003*[#  83]+0.003*[# 160]+0.003*[#  48]+0.003*[#  63]+0.003*[# 191]
          +0.003*[# 204]+0.003*[#  76]+0.003*[# 171]+0.003*[#  30]+0.003*[#  71]
          +0.003*[# 113]+0.003*[# 121]+0.003*[# 133]+0.003*[# 141]+0.003*[# 179]
          +0.003*[# 220]+0.002*[#  50]+0.002*[# 198]+0.002*[#  46]+0.002*[# 202]
          +0.002*[# 233]+0.002*[#   2]+0.002*[#  17]+0.002*[#  99]+0.002*[# 116]
          +0.002*[# 128]+0.002*[# 149]+0.002*[# 249]+0.002*[#  81]+0.002*[# 124]
          +0.001*[#  34]+0.001*[# 136]+0.002*[# 176]+0.001*[#  84]+0.001*[# 161]
          +0.001*[# 216]+0.001*[#  11]+0.001*[#  15]+0.001*[#  21]+0.001*[#  45]
          +0.001*[#  47]+0.001*[#  51]+0.001*[# 102]+0.001*[# 152]+0.001*[# 199]
          +0.001*[# 203]+0.001*[# 209]+0.001*[# 224]+0.001*[#  26]
    |psi|^2 = 0.996
==== e(  30) =    -8.26992 eV ==== 
     psi = 0.041*[# 118]+0.041*[# 130]+0.038*[# 110]+0.038*[# 138]+0.035*[#  69]
          +0.035*[# 185]+0.033*[#  61]+0.033*[# 189]+0.024*[#  83]+0.024*[# 160]
          +0.022*[# 101]+0.022*[# 151]+0.022*[#  76]+0.022*[# 171]+0.021*[#  94]
          +0.021*[# 144]+0.020*[# 121]+0.020*[# 133]+0.017*[# 113]+0.017*[# 141]
          +0.016*[#  50]+0.016*[# 198]+0.014*[#  46]+0.014*[# 202]+0.011*[# 124]
          +0.011*[# 128]+0.010*[# 116]+0.010*[# 136]+0.009*[#  51]+0.009*[# 199]
          +0.009*[#  84]+0.009*[# 161]+0.008*[# 114]+0.008*[# 134]+0.008*[#  47]
          +0.008*[# 203]+0.008*[# 102]+0.008*[# 152]+0.007*[#  65]+0.007*[#  86]
          +0.007*[# 163]+0.007*[# 193]+0.007*[#  72]+0.007*[# 180]+0.006*[# 104]
          +0.006*[# 154]+0.006*[#  64]+0.006*[# 192]+0.005*[# 122]+0.005*[# 126]
          +0.005*[#  66]+0.005*[# 182]+0.005*[#  73]+0.005*[# 181]+0.005*[#  92]
          +0.005*[# 142]+0.004*[#  58]+0.004*[# 103]+0.004*[# 153]+0.004*[# 186]
          +0.004*[#  67]+0.004*[# 117]+0.004*[# 137]+0.004*[# 183]+0.004*[#  44]
          +0.004*[# 208]+0.003*[#  56]+0.003*[# 196]+0.003*[#  42]+0.003*[#  59]
          +0.003*[# 187]+0.003*[# 206]+0.003*[#  74]+0.003*[# 169]+0.003*[#  85]
          +0.003*[# 162]+0.002*[# 112]+0.002*[# 125]+0.002*[# 129]+0.002*[#  54]
          +0.002*[# 140]+0.002*[# 194]+0.002*[#  90]+0.002*[#  93]+0.002*[# 143]
          +0.002*[# 167]+0.002*[#  43]+0.002*[# 207]+0.002*[# 108]+0.002*[# 158]
          +0.001*[#  95]+0.001*[# 120]+0.001*[# 132]+0.001*[# 145]+0.001*[#   4]
          +0.001*[#  53]+0.001*[#  60]+0.001*[# 188]+0.001*[# 201]+0.001*[#   8]
          +0.001*[# 246]+0.001*[#  19]+0.001*[#  49]+0.001*[#  75]+0.001*[# 170]
          +0.001*[# 205]
    |psi|^2 = 0.998
==== e(  31) =    -8.25053 eV ==== 
     psi = 0.139*[#  19]+0.113*[#  15]+0.112*[#  20]+0.101*[#  18]+0.099*[#  11]
          +0.085*[#  14]+0.025*[#  22]+0.022*[#  26]+0.018*[#   8]+0.015*[#  21]
          +0.013*[# 235]+0.013*[# 234]+0.012*[#   6]+0.012*[#  17]+0.012*[# 231]
          +0.012*[#  10]+0.011*[#  28]+0.010*[#  30]+0.010*[# 240]+0.010*[# 238]
          +0.010*[# 239]+0.010*[#  27]+0.009*[#   5]+0.009*[#   9]+0.008*[#   1]
          +0.007*[#   7]+0.006*[#   3]+0.005*[#  25]+0.005*[#  24]+0.004*[#  37]
          +0.004*[#  16]+0.004*[# 228]+0.003*[#   2]+0.003*[#  23]+0.003*[# 242]
          +0.003*[#  12]+0.002*[# 227]+0.002*[#  31]+0.002*[#  32]+0.002*[# 220]
          +0.001*[# 224]+0.001*[# 225]+0.001*[# 250]+0.001*[# 226]+0.001*[# 244]
          +0.001*[# 247]+0.001*[# 248]
    |psi|^2 = 0.982
==== e(  32) =    -8.24733 eV ==== 
     psi = 0.120*[# 235]+0.117*[# 234]+0.111*[# 231]+0.100*[# 238]+0.099*[# 240]
          +0.098*[# 239]+0.024*[# 228]+0.023*[# 224]+0.016*[# 242]+0.015*[# 227]
          +0.014*[# 233]+0.012*[#  19]+0.011*[#  15]+0.011*[# 247]+0.011*[# 248]
          +0.011*[# 225]+0.011*[# 244]+0.010*[# 243]+0.010*[#  20]+0.010*[#  11]
          +0.010*[# 226]+0.009*[#  18]+0.009*[# 220]+0.009*[#  14]+0.007*[# 241]
          +0.007*[# 250]+0.006*[# 245]+0.006*[# 223]+0.004*[# 230]+0.004*[# 214]
          +0.004*[# 229]+0.004*[# 232]+0.003*[#  26]+0.003*[# 249]+0.003*[# 236]
          +0.002*[#  17]+0.002*[#  22]+0.002*[# 221]+0.001*[# 114]+0.002*[# 122]
          +0.002*[# 126]+0.001*[#  73]+0.001*[# 222]+0.001*[#   6]+0.001*[#  10]
          +0.001*[#  21]+0.001*[# 134]+0.001*[#  28]+0.001*[#  65]+0.001*[# 181]
          +0.001*[#  74]
    |psi|^2 = 0.982
==== e(  33) =    -7.80577 eV ==== 
     psi = 0.096*[#  39]+0.093*[# 211]+0.047*[#  54]+0.046*[# 194]+0.032*[#   4]
          +0.031*[# 246]+0.025*[#  13]+0.025*[# 237]+0.022*[#  17]+0.022*[#  26]
          +0.022*[# 233]+0.021*[# 224]+0.017*[#  22]+0.017*[# 123]+0.017*[# 127]
          +0.016*[# 228]+0.014*[#   8]+0.014*[# 242]+0.012*[#  30]+0.012*[# 220]
          +0.012*[#  34]+0.012*[# 169]+0.011*[# 162]+0.011*[#  74]+0.011*[#  85]
          +0.011*[# 216]+0.008*[# 181]+0.008*[#  73]+0.008*[# 217]+0.008*[#  36]
          +0.007*[#  35]+0.007*[# 206]+0.007*[#  42]+0.007*[# 202]+0.006*[#  46]
          +0.006*[# 218]+0.006*[#   1]+0.006*[# 250]+0.005*[#  93]+0.005*[# 143]
          +0.005*[# 138]+0.005*[# 102]+0.005*[# 110]+0.005*[# 134]+0.005*[# 114]
          +0.005*[# 152]+0.004*[# 103]+0.004*[# 115]+0.004*[# 135]+0.004*[# 153]
          +0.004*[#  94]+0.004*[# 111]+0.004*[# 139]+0.004*[# 144]+0.004*[#  71]
          +0.003*[#  60]+0.004*[# 179]+0.003*[# 188]+0.003*[#  62]+0.003*[#  64]
          +0.003*[# 190]+0.003*[# 192]+0.003*[#  38]+0.003*[#  58]+0.003*[#  92]
          +0.003*[#  95]+0.003*[# 142]+0.003*[# 145]+0.003*[# 186]+0.003*[# 243]
          +0.003*[# 104]+0.003*[# 154]+0.003*[# 210]+0.003*[#   9]+0.003*[#  10]
          +0.003*[#  52]+0.003*[# 101]+0.003*[# 151]+0.003*[# 200]+0.002*[#   6]
          +0.002*[#  43]+0.002*[#  47]+0.002*[#  68]+0.002*[# 184]+0.002*[#  70]
          +0.002*[# 178]+0.002*[# 203]+0.002*[# 207]+0.002*[# 238]+0.002*[# 244]
          +0.002*[#  14]+0.002*[#  55]+0.002*[# 248]+0.002*[#  15]+0.002*[#  37]
          +0.002*[# 195]+0.002*[#  11]+0.002*[#  33]+0.002*[# 214]+0.002*[# 215]
          +0.001*[# 204]+0.001*[# 239]+0.002*[# 240]+0.001*[#  44]+0.001*[#  48]
          +0.001*[# 208]+0.001*[# 247]+0.001*[#   5]
    |psi|^2 = 0.993
==== e(  34) =    -7.70830 eV ==== 
     psi = 0.119*[# 211]+0.117*[#  39]+0.038*[# 194]+0.037*[#  54]+0.031*[# 246]
          +0.031*[#   4]+0.028*[# 237]+0.027*[#  13]+0.023*[# 224]+0.023*[# 233]
          +0.022*[#  26]+0.022*[#  17]+0.018*[# 228]+0.018*[#  22]+0.013*[# 220]
          +0.013*[#  30]+0.012*[# 216]+0.012*[#  34]+0.012*[# 242]+0.011*[#   8]
          +0.011*[#  74]+0.011*[# 217]+0.011*[# 169]+0.010*[#  85]+0.010*[# 162]
          +0.009*[#  35]+0.009*[#  36]+0.008*[#  55]+0.008*[# 195]+0.008*[# 127]
          +0.008*[# 218]+0.008*[# 123]+0.006*[#  42]+0.006*[# 143]+0.006*[#  46]
          +0.006*[#  93]+0.006*[# 202]+0.006*[# 206]+0.006*[# 250]+0.006*[#   1]
          +0.005*[# 102]+0.005*[# 152]+0.005*[#  65]+0.005*[# 193]+0.005*[#  61]
          +0.005*[# 114]+0.005*[# 189]+0.005*[#  38]+0.005*[# 110]+0.005*[# 134]
          +0.005*[# 138]+0.005*[# 210]+0.004*[#  73]+0.004*[# 181]+0.004*[# 243]
          +0.003*[#   9]+0.003*[#  10]+0.003*[# 115]+0.003*[#   6]+0.003*[#  71]
          +0.003*[# 135]+0.003*[# 179]+0.003*[# 111]+0.003*[# 139]+0.003*[# 244]
          +0.003*[# 248]+0.002*[# 238]+0.002*[#  14]+0.002*[#  37]+0.002*[#  43]
          +0.002*[#  47]+0.002*[#  70]+0.002*[# 178]+0.002*[# 203]+0.002*[# 207]
          +0.002*[# 214]+0.002*[# 144]+0.002*[# 153]+0.002*[# 247]+0.002*[#  33]
          +0.002*[#  94]+0.002*[# 103]+0.002*[# 215]+0.002*[#   5]+0.002*[#  11]
          +0.002*[#  15]+0.002*[# 240]+0.001*[#  23]+0.001*[#  68]+0.001*[#  77]
          +0.002*[# 122]+0.001*[# 126]+0.001*[#  48]+0.001*[# 137]+0.001*[# 172]
          +0.002*[# 229]+0.001*[# 117]+0.001*[# 184]+0.001*[# 239]+0.001*[#  44]
          +0.001*[#  81]+0.001*[# 113]+0.001*[# 141]+0.001*[# 176]+0.001*[# 204]
          +0.001*[# 208]+0.001*[#  63]+0.001*[# 191]+0.001*[# 112]
    |psi|^2 = 0.993
==== e(  35) =    -7.36802 eV ==== 
     psi = 0.052*[# 198]+0.052*[#  50]+0.051*[# 131]+0.051*[# 119]+0.031*[#  83]
          +0.031*[# 160]+0.029*[#  76]+0.029*[# 171]+0.026*[#  46]+0.026*[# 202]
          +0.025*[#  42]+0.025*[# 206]+0.025*[# 111]+0.025*[# 139]+0.024*[# 115]
          +0.024*[# 135]+0.016*[#  66]+0.016*[# 182]+0.015*[# 151]+0.015*[# 101]
          +0.015*[# 144]+0.015*[#  94]+0.014*[#  92]+0.014*[# 142]+0.014*[# 103]
          +0.014*[# 153]+0.013*[#  72]+0.013*[# 180]+0.011*[#  51]+0.011*[# 199]
          +0.010*[# 130]+0.009*[# 118]+0.009*[#  58]+0.009*[# 186]+0.008*[#  56]
          +0.008*[# 196]+0.008*[#  62]+0.008*[# 190]+0.007*[#  64]+0.007*[# 192]
          +0.006*[#  69]+0.006*[#  84]+0.006*[# 161]+0.006*[# 185]+0.006*[#  60]
          +0.006*[# 188]+0.006*[#  47]+0.006*[# 203]+0.005*[#  43]+0.005*[# 207]
          +0.005*[# 110]+0.005*[# 138]+0.005*[#  44]+0.005*[# 114]+0.005*[# 208]
          +0.005*[# 134]+0.004*[#  48]+0.004*[# 204]+0.004*[#  67]+0.004*[# 183]
          +0.004*[#  86]+0.004*[#  87]+0.004*[#  90]+0.003*[# 163]+0.004*[# 164]
          +0.004*[# 167]+0.003*[# 102]+0.003*[# 152]+0.003*[#  93]+0.003*[# 143]
          +0.003*[#  61]+0.003*[#  65]+0.003*[# 189]+0.003*[# 193]+0.002*[#  59]
          +0.002*[# 187]+0.002*[# 104]+0.002*[# 154]+0.002*[#  95]+0.002*[# 145]
          +0.002*[#  63]+0.002*[#  96]+0.002*[# 105]+0.002*[# 146]+0.002*[# 155]
          +0.002*[# 191]+0.002*[#  99]+0.002*[# 108]+0.002*[# 149]+0.002*[# 158]
          +0.001*[#  82]+0.001*[# 124]+0.001*[# 128]+0.001*[# 177]
    |psi|^2 = 0.998
==== e(  36) =    -7.11220 eV ==== 
     psi = 0.045*[#  50]+0.045*[# 198]+0.038*[#  69]+0.038*[# 185]+0.029*[# 206]
          +0.028*[#  42]+0.025*[# 119]+0.025*[# 118]+0.025*[# 130]+0.025*[# 131]
          +0.024*[# 171]+0.024*[#  76]+0.022*[#  65]+0.022*[# 193]+0.022*[# 160]
          +0.021*[#  83]+0.020*[#  46]+0.020*[# 202]+0.017*[#  61]+0.017*[# 189]
          +0.016*[# 135]+0.016*[# 115]+0.014*[# 134]+0.014*[# 114]+0.014*[#  86]
          +0.014*[# 163]+0.012*[# 103]+0.012*[#  51]+0.012*[# 153]+0.012*[# 199]
          +0.012*[# 110]+0.011*[# 138]+0.012*[# 144]+0.011*[#  94]+0.011*[# 111]
          +0.010*[# 139]+0.010*[# 151]+0.010*[#  92]+0.010*[# 101]+0.009*[# 142]
          +0.008*[#  90]+0.008*[# 167]+0.007*[# 207]+0.007*[#  43]+0.007*[#  95]
          +0.007*[# 121]+0.007*[# 133]+0.007*[# 145]+0.007*[# 104]+0.007*[# 154]
          +0.005*[#  47]+0.005*[# 203]+0.005*[# 180]+0.005*[#  56]+0.005*[#  72]
          +0.005*[# 196]+0.004*[# 117]+0.004*[# 137]+0.004*[#  84]+0.004*[#  99]
          +0.004*[# 149]+0.004*[# 161]+0.003*[# 108]+0.003*[# 158]+0.003*[# 204]
          +0.003*[#  48]+0.003*[#  82]+0.003*[# 113]+0.003*[# 141]+0.003*[# 177]
          +0.003*[#  87]+0.003*[# 164]+0.003*[#  67]+0.003*[# 183]+0.002*[#  44]
          +0.002*[#  60]+0.002*[#  64]+0.002*[# 192]+0.002*[#  66]+0.002*[# 182]
          +0.002*[# 188]+0.002*[# 208]+0.002*[# 102]+0.002*[# 152]+0.002*[#  93]
          +0.002*[#  96]+0.002*[# 143]+0.001*[#  58]+0.001*[#  63]+0.002*[# 146]
          +0.001*[# 186]+0.002*[# 191]+0.001*[# 100]+0.001*[# 105]+0.001*[# 109]
          +0.001*[# 150]+0.001*[# 155]+0.001*[# 159]+0.001*[#  59]+0.001*[# 124]
          +0.001*[# 128]+0.001*[# 187]
    |psi|^2 = 0.997
==== e(  37) =    -7.08243 eV ==== 
     psi = 0.049*[# 211]+0.049*[#  39]+0.037*[# 195]+0.037*[#  55]+0.030*[# 202]
          +0.030*[#  46]+0.027*[# 139]+0.027*[# 111]+0.024*[#  42]+0.023*[# 115]
          +0.023*[# 206]+0.023*[#  74]+0.023*[# 135]+0.023*[# 169]+0.022*[#  85]
          +0.021*[# 162]+0.019*[# 122]+0.019*[# 126]+0.016*[# 123]+0.016*[# 127]
          +0.014*[#  70]+0.014*[# 178]+0.013*[#  68]+0.013*[# 184]+0.012*[#  77]
          +0.012*[# 172]+0.011*[#  61]+0.011*[# 189]+0.009*[# 142]+0.009*[#  75]
          +0.009*[#  92]+0.009*[# 101]+0.009*[# 170]+0.009*[# 151]+0.007*[#  94]
          +0.007*[# 144]+0.007*[#  13]+0.007*[# 237]+0.006*[# 153]+0.006*[# 103]
          +0.006*[# 203]+0.006*[#  47]+0.005*[# 110]+0.006*[# 138]+0.005*[#  36]
          +0.005*[#   4]+0.005*[# 217]+0.005*[#  38]+0.005*[#  65]+0.005*[# 193]
          +0.005*[# 210]+0.005*[# 246]+0.005*[#  22]+0.005*[# 228]+0.005*[#  81]
          +0.005*[# 176]+0.005*[# 218]+0.004*[#  30]+0.005*[#  35]+0.005*[# 220]
          +0.004*[#  78]+0.004*[# 173]+0.004*[#  44]+0.004*[# 208]+0.004*[#  43]
          +0.004*[# 207]+0.004*[#  52]+0.004*[# 200]+0.003*[#  26]+0.003*[# 224]
          +0.003*[#  48]+0.003*[#  62]+0.003*[# 190]+0.003*[# 204]+0.003*[#  17]
          +0.003*[#  59]+0.003*[# 187]+0.003*[# 233]+0.003*[# 125]+0.002*[# 129]
          +0.002*[#  58]+0.002*[#  63]+0.002*[# 186]+0.002*[#  34]+0.002*[# 114]
          +0.002*[# 134]+0.002*[# 191]+0.002*[# 216]+0.002*[#  10]+0.002*[# 243]
          +0.002*[#  60]+0.002*[#  91]+0.002*[# 168]+0.002*[# 188]+0.002*[#   6]
          +0.002*[#   9]+0.002*[#  64]+0.002*[# 120]+0.002*[# 132]+0.002*[# 192]
          +0.002*[# 244]+0.001*[#  71]+0.002*[# 179]+0.002*[# 248]+0.001*[# 105]
          +0.001*[#  54]+0.001*[#  57]+0.001*[# 155]+0.001*[#   5]+0.001*[# 113]
          +0.001*[# 141]+0.001*[# 194]+0.001*[# 197]+0.001*[# 247]+0.001*[# 146]
          +0.001*[#  20]+0.001*[#  96]
    |psi|^2 = 0.997
==== e(  38) =    -6.85524 eV ==== 
     psi = 0.048*[#  55]+0.048*[# 195]+0.039*[#  39]+0.039*[# 211]+0.037*[# 122]
          +0.037*[# 126]+0.031*[#  73]+0.031*[# 181]+0.021*[# 123]+0.021*[# 127]
          +0.019*[#  42]+0.019*[# 206]+0.018*[# 202]+0.018*[#  46]+0.016*[#  85]
          +0.016*[# 162]+0.012*[#  92]+0.012*[# 142]+0.012*[#  74]+0.012*[# 101]
          +0.012*[# 151]+0.012*[# 169]+0.011*[# 115]+0.011*[# 135]+0.011*[# 139]
          +0.011*[# 111]+0.009*[#  61]+0.009*[# 103]+0.009*[# 189]+0.009*[# 153]
          +0.008*[#  65]+0.008*[# 193]+0.008*[#  94]+0.008*[# 144]+0.008*[#  75]
          +0.008*[# 125]+0.008*[# 129]+0.008*[# 170]+0.007*[#  77]+0.007*[# 172]
          +0.007*[#  54]+0.007*[# 194]+0.006*[#  95]+0.006*[# 145]+0.006*[#  13]
          +0.006*[#  36]+0.006*[# 104]+0.006*[# 110]+0.006*[# 138]+0.006*[# 154]
          +0.006*[# 237]+0.006*[#  81]+0.006*[# 114]+0.006*[# 134]+0.006*[# 176]
          +0.005*[# 217]+0.005*[#  38]+0.005*[#  52]+0.005*[# 200]+0.005*[# 218]
          +0.005*[# 210]+0.005*[#  35]+0.005*[#  78]+0.005*[# 173]+0.004*[#   4]
          +0.004*[# 246]+0.004*[# 117]+0.004*[# 137]+0.004*[#  22]+0.004*[#  43]
          +0.004*[#  47]+0.004*[#  99]+0.004*[# 149]+0.004*[# 203]+0.004*[# 207]
          +0.004*[#  30]+0.004*[# 220]+0.004*[# 228]+0.003*[# 108]+0.003*[# 113]
          +0.003*[# 141]+0.003*[# 158]+0.003*[#  58]+0.003*[#  59]+0.003*[#  62]
          +0.003*[# 120]+0.003*[# 132]+0.003*[# 186]+0.003*[# 187]+0.003*[# 190]
          +0.003*[#  63]+0.003*[# 191]+0.003*[# 243]+0.002*[#   6]+0.003*[#  60]
          +0.002*[#   9]+0.002*[# 188]+0.002*[#  10]+0.002*[#  64]+0.002*[# 192]
          +0.002*[# 248]+0.002*[#  91]+0.002*[# 168]+0.002*[# 244]+0.002*[#  68]
          +0.002*[# 184]+0.002*[#  20]+0.002*[#  44]+0.002*[#  48]+0.002*[# 204]
          +0.002*[# 208]+0.001*[#   2]+0.002*[# 231]+0.001*[#  26]+0.001*[# 224]
          +0.001*[# 247]+0.001*[# 249]+0.001*[#   5]+0.001*[#  96]+0.001*[# 105]
          +0.001*[# 238]
    |psi|^2 = 0.997
==== e(  39) =    -6.48929 eV ==== 
     psi = 0.188*[#   8]+0.180*[#   4]+0.138*[#   1]+0.113*[#  17]+0.099*[#   2]
          +0.080*[#  13]+0.022*[#  26]+0.014*[#  22]+0.013*[#  19]+0.012*[#  34]
          +0.009*[#   6]+0.009*[#  24]+0.007*[#  21]+0.007*[#  33]+0.007*[#  12]
          +0.007*[#  18]+0.006*[#  30]+0.006*[#  40]+0.005*[# 242]+0.005*[# 246]
          +0.004*[#  23]+0.004*[#   5]+0.004*[#  25]+0.004*[#  41]+0.004*[#  16]
          +0.004*[#  20]+0.004*[#  28]+0.004*[# 250]+0.003*[# 233]+0.003*[# 249]
          +0.003*[#  29]+0.002*[#   3]+0.002*[#   7]+0.002*[# 237]+0.002*[#  11]
          +0.002*[#   9]+0.001*[#  27]+0.001*[#  39]+0.001*[#  36]
    |psi|^2 = 0.990
==== e(  40) =    -6.48609 eV ==== 
     psi = 0.188*[# 242]+0.180*[# 246]+0.139*[# 250]+0.113*[# 233]+0.099*[# 249]
          +0.080*[# 237]+0.021*[# 224]+0.014*[# 228]+0.012*[# 235]+0.012*[# 216]
          +0.009*[# 248]+0.008*[# 230]+0.008*[# 234]+0.007*[# 227]+0.007*[# 215]
          +0.007*[# 212]+0.007*[# 236]+0.006*[# 220]+0.005*[# 229]+0.005*[# 247]
          +0.005*[#   8]+0.005*[#   4]+0.004*[# 223]+0.004*[# 232]+0.004*[#   1]
          +0.004*[# 231]+0.003*[# 213]+0.003*[# 226]+0.003*[#  17]+0.003*[# 219]
          +0.002*[#   2]+0.002*[# 243]+0.002*[# 241]+0.002*[# 245]+0.002*[# 240]
          +0.002*[#  13]+0.001*[# 211]+0.001*[# 225]
    |psi|^2 = 0.990
==== e(  41) =    -6.35619 eV ==== 
     psi = 0.093*[#   5]+0.076*[#   9]+0.076*[#  14]+0.071*[#  40]+0.070*[#  18]
          +0.065*[#  10]+0.063*[#  15]+0.059*[#   6]+0.059*[#  41]+0.051*[#  23]
          +0.044*[#  19]+0.036*[#  27]+0.034*[#  24]+0.029*[#  28]+0.011*[#  35]
          +0.011*[# 247]+0.010*[#  31]+0.010*[# 244]+0.009*[# 239]+0.009*[# 213]
          +0.009*[# 248]+0.008*[# 238]+0.008*[# 234]+0.008*[# 243]+0.008*[# 212]
          +0.006*[#  32]+0.006*[# 235]+0.006*[# 229]+0.005*[#  36]+0.005*[# 230]
          +0.004*[# 226]+0.004*[# 225]+0.003*[#  56]+0.002*[#  57]+0.001*[# 217]
          +0.001*[# 221]
    |psi|^2 = 0.982
==== e(  42) =    -6.35268 eV ==== 
     psi = 0.084*[# 247]+0.077*[# 244]+0.074*[# 239]+0.069*[# 213]+0.068*[# 248]
          +0.064*[# 238]+0.064*[# 243]+0.063*[# 234]+0.061*[# 212]+0.051*[# 235]
          +0.045*[# 229]+0.040*[# 230]+0.035*[# 226]+0.031*[# 225]+0.012*[#   5]
          +0.011*[# 217]+0.010*[#   9]+0.010*[#  14]+0.009*[#  40]+0.009*[# 221]
          +0.009*[#  18]+0.008*[#  10]+0.008*[#  15]+0.008*[#   6]+0.008*[# 222]
          +0.008*[#  41]+0.006*[#  23]+0.006*[# 218]+0.006*[#  19]+0.005*[#  27]
          +0.004*[#  24]+0.004*[#  28]+0.002*[# 197]+0.002*[# 196]+0.001*[#  35]
          +0.001*[#  31]
    |psi|^2 = 0.982
==== e(  43) =    -6.20753 eV ==== 
     psi = 0.052*[#  20]+0.049*[#   6]+0.044*[#  10]+0.042*[#  19]+0.039*[#   9]
          +0.038*[# 231]+0.037*[#  11]+0.036*[#   2]+0.033*[# 243]+0.032*[# 248]
          +0.031*[#   5]+0.028*[# 235]+0.027*[# 244]+0.027*[# 240]+0.027*[# 247]
          +0.026*[# 249]+0.026*[#  15]+0.026*[#  18]+0.023*[#  14]+0.022*[# 234]
          +0.020*[# 238]+0.017*[#  26]+0.016*[# 239]+0.015*[#  28]+0.015*[#  27]
          +0.012*[#   1]+0.012*[# 225]+0.012*[# 224]+0.012*[#   8]+0.011*[#  24]
          +0.010*[#  36]+0.009*[# 226]+0.009*[#  33]+0.009*[#  35]+0.009*[# 250]
          +0.009*[# 242]+0.008*[#  23]+0.008*[# 217]+0.007*[#  39]+0.007*[# 218]
          +0.007*[# 230]+0.007*[# 215]+0.006*[# 229]+0.005*[#  32]+0.005*[# 211]
          +0.004*[#  37]+0.003*[#  29]+0.003*[#  54]+0.003*[# 222]+0.003*[#  34]
          +0.003*[# 194]+0.003*[# 214]+0.003*[#  17]+0.002*[# 219]+0.002*[# 216]
          +0.002*[#  22]+0.002*[# 122]+0.002*[# 233]+0.002*[#  31]+0.001*[# 221]
          +0.001*[#  30]+0.001*[#  59]+0.001*[# 126]+0.001*[# 187]+0.001*[# 228]
          +0.001*[#  13]
    |psi|^2 = 0.990
==== e(  44) =    -6.19038 eV ==== 
     psi = 0.051*[# 231]+0.044*[# 243]+0.042*[# 248]+0.037*[#  20]+0.037*[# 235]
          +0.037*[# 244]+0.037*[# 240]+0.037*[# 249]+0.036*[# 247]+0.034*[#   6]
          +0.032*[#  10]+0.030*[#  19]+0.030*[# 234]+0.027*[#   9]+0.027*[#   2]
          +0.027*[#  11]+0.027*[# 238]+0.022*[#   5]+0.022*[# 239]+0.019*[#  15]
          +0.019*[#  18]+0.018*[# 224]+0.017*[# 225]+0.016*[#  14]+0.014*[#  26]
          +0.013*[# 226]+0.013*[# 242]+0.012*[# 250]+0.012*[#  28]+0.011*[# 211]
          +0.011*[#  27]+0.010*[# 230]+0.009*[#   8]+0.009*[# 229]+0.009*[#   1]
          +0.009*[#  39]+0.009*[# 217]+0.008*[# 215]+0.008*[#  24]+0.008*[# 218]
          +0.006*[#  36]+0.006*[#  33]+0.006*[#  23]+0.006*[#  35]+0.004*[# 222]
          +0.004*[# 214]+0.004*[#  32]+0.003*[# 216]+0.003*[# 219]+0.003*[# 233]
          +0.003*[#  37]+0.003*[#  17]+0.002*[#  29]+0.002*[#  34]+0.002*[# 221]
          +0.002*[# 228]+0.002*[# 126]+0.002*[# 195]+0.002*[#  22]+0.002*[#  55]
          +0.001*[# 122]+0.002*[# 194]+0.001*[#  31]+0.001*[#  46]+0.001*[# 220]
          
    |psi|^2 = 0.990
==== e(  45) =    -5.74646 eV ==== 
     psi = 0.047*[# 125]+0.047*[# 129]+0.033*[# 113]+0.033*[# 141]+0.026*[# 110]
          +0.026*[# 138]+0.019*[#  77]+0.019*[# 122]+0.019*[# 126]+0.019*[# 172]
          +0.019*[# 111]+0.019*[# 139]+0.018*[#  74]+0.018*[# 169]+0.018*[# 104]
          +0.018*[# 154]+0.017*[#  46]+0.017*[# 202]+0.015*[#  71]+0.015*[# 179]
          +0.015*[#  80]+0.015*[# 175]+0.015*[# 117]+0.015*[# 137]+0.013*[# 114]
          +0.013*[# 134]+0.012*[#  70]+0.012*[# 178]+0.012*[#  88]+0.012*[# 165]
          +0.012*[#  58]+0.012*[# 186]+0.011*[#  68]+0.011*[# 184]+0.011*[# 123]
          +0.011*[# 107]+0.011*[# 127]+0.011*[# 157]+0.009*[#  64]+0.009*[# 192]
          +0.009*[# 115]+0.009*[# 135]+0.009*[#  57]+0.009*[# 197]+0.008*[#  42]
          +0.008*[#  95]+0.008*[# 101]+0.008*[# 145]+0.008*[# 151]+0.008*[# 206]
          +0.008*[#  49]+0.008*[#  81]+0.008*[# 176]+0.008*[# 205]+0.006*[#  73]
          +0.006*[# 181]+0.006*[#  61]+0.006*[# 189]+0.005*[#  62]+0.005*[#  75]
          +0.005*[# 170]+0.005*[# 190]+0.005*[#  98]+0.005*[# 148]+0.005*[#  60]
          +0.005*[# 188]+0.004*[# 100]+0.004*[# 150]+0.004*[#  45]+0.004*[#  91]
          +0.004*[# 168]+0.004*[# 209]+0.004*[#  92]+0.004*[# 142]+0.003*[#  85]
          +0.003*[# 108]+0.003*[# 158]+0.003*[# 162]+0.003*[#  44]+0.003*[#  65]
          +0.003*[# 193]+0.003*[# 208]+0.002*[# 109]+0.002*[# 159]+0.002*[#  59]
          +0.002*[# 187]+0.002*[#  78]+0.002*[# 173]+0.002*[#  52]+0.002*[#  54]
          +0.002*[# 121]+0.002*[# 133]+0.002*[# 194]+0.002*[# 200]+0.001*[#  48]
          +0.001*[#  99]+0.001*[# 149]+0.001*[# 204]+0.001*[#  97]+0.001*[# 147]
          
    |psi|^2 = 0.996
==== e(  46) =    -5.72965 eV ==== 
     psi = 0.049*[# 121]+0.049*[# 133]+0.033*[# 117]+0.033*[# 137]+0.031*[# 118]
          +0.030*[# 130]+0.023*[#  86]+0.023*[# 163]+0.022*[# 114]+0.022*[# 134]
          +0.020*[# 119]+0.020*[# 131]+0.018*[#  89]+0.018*[# 166]+0.016*[#  95]
          +0.016*[# 145]+0.015*[# 113]+0.015*[# 141]+0.015*[#  66]+0.015*[# 182]
          +0.014*[#  83]+0.014*[# 160]+0.014*[# 115]+0.014*[# 135]+0.013*[#  72]
          +0.013*[# 180]+0.012*[#  98]+0.012*[# 148]+0.012*[#  50]+0.012*[# 198]
          +0.011*[#  92]+0.011*[# 142]+0.011*[#  53]+0.011*[# 201]+0.010*[#  62]
          +0.010*[# 190]+0.010*[#  60]+0.010*[# 110]+0.010*[# 138]+0.010*[# 188]
          +0.008*[#  67]+0.008*[# 183]+0.008*[#  42]+0.008*[# 206]+0.007*[#  45]
          +0.007*[# 209]+0.007*[#  69]+0.007*[# 104]+0.007*[# 185]+0.007*[# 154]
          +0.006*[#  63]+0.006*[# 107]+0.006*[# 191]+0.006*[# 111]+0.006*[# 139]
          +0.006*[# 157]+0.005*[#  79]+0.005*[#  90]+0.005*[# 167]+0.005*[# 174]
          +0.005*[# 101]+0.005*[# 151]+0.005*[#  65]+0.005*[# 193]+0.005*[#  58]
          +0.005*[# 186]+0.004*[#  82]+0.004*[# 177]+0.004*[#  64]+0.004*[# 192]
          +0.004*[#  99]+0.004*[# 106]+0.004*[# 149]+0.004*[# 156]+0.004*[#  59]
          +0.004*[# 109]+0.004*[# 159]+0.004*[# 187]+0.003*[#  49]+0.003*[# 205]
          +0.003*[#  46]+0.003*[#  56]+0.003*[# 196]+0.003*[# 202]+0.002*[#  61]
          +0.002*[#  48]+0.002*[#  76]+0.002*[#  97]+0.002*[# 147]+0.002*[# 171]
          +0.002*[# 189]+0.002*[# 204]+0.002*[# 108]+0.002*[# 125]+0.002*[# 129]
          +0.002*[# 158]+0.001*[# 103]+0.001*[# 150]+0.001*[# 153]+0.001*[#  84]
          +0.001*[# 100]+0.001*[# 161]
    |psi|^2 = 0.996
==== e(  47) =    -5.54583 eV ==== 
     psi = 0.177*[#  31]+0.156*[#  35]+0.123*[#  32]+0.118*[#  36]+0.062*[#  27]
          +0.055*[#  23]+0.054*[#  28]+0.050*[#  18]+0.048*[#  24]+0.032*[#  19]
          +0.029*[#  14]+0.019*[#  15]+0.013*[#  40]+0.011*[#   9]+0.010*[#  10]
          +0.009*[#  41]+0.002*[# 221]+0.002*[# 217]+0.002*[# 222]+0.002*[# 218]
          
    |psi|^2 = 0.994
==== e(  48) =    -5.54206 eV ==== 
     psi = 0.154*[# 221]+0.147*[# 222]+0.138*[# 218]+0.137*[# 217]+0.062*[# 226]
          +0.055*[# 230]+0.055*[# 225]+0.048*[# 229]+0.044*[# 234]+0.039*[# 235]
          +0.025*[# 238]+0.023*[# 239]+0.012*[# 244]+0.011*[# 212]+0.011*[# 213]
          +0.010*[# 243]+0.002*[#  31]+0.002*[#  35]+0.002*[#  32]+0.002*[#  36]
          
    |psi|^2 = 0.995
==== e(  49) =    -5.50578 eV ==== 
     psi = 0.067*[# 198]+0.066*[#  50]+0.034*[#  42]+0.034*[#  84]+0.034*[# 206]
          +0.033*[# 161]+0.032*[#  46]+0.031*[#  79]+0.031*[# 202]+0.031*[# 174]
          +0.026*[# 183]+0.026*[#  67]+0.020*[# 131]+0.020*[# 119]+0.018*[#  87]
          +0.017*[# 164]+0.016*[# 130]+0.017*[# 143]+0.016*[# 152]+0.016*[#  93]
          +0.016*[# 102]+0.016*[# 118]+0.016*[# 147]+0.015*[#  97]+0.015*[#  59]
          +0.015*[# 156]+0.015*[# 106]+0.015*[# 187]+0.013*[#  63]+0.013*[# 191]
          +0.010*[# 115]+0.010*[# 135]+0.010*[# 114]+0.009*[# 134]+0.009*[# 146]
          +0.009*[#  90]+0.009*[#  96]+0.009*[# 111]+0.009*[# 167]+0.009*[# 139]
          +0.008*[# 155]+0.008*[# 105]+0.007*[# 110]+0.007*[# 138]+0.005*[#  76]
          +0.005*[# 171]+0.004*[#  99]+0.004*[# 149]+0.004*[# 108]+0.004*[# 158]
          +0.004*[#  83]+0.004*[# 160]+0.004*[#  82]+0.004*[# 177]+0.003*[# 124]
          +0.003*[# 128]+0.003*[# 103]+0.003*[# 153]+0.003*[#  94]+0.003*[# 144]
          +0.002*[# 218]+0.002*[# 101]+0.002*[# 151]+0.002*[#  56]+0.002*[#  66]
          +0.002*[# 109]+0.002*[# 116]+0.002*[# 159]+0.002*[#  36]+0.002*[# 136]
          +0.002*[# 182]+0.002*[# 196]+0.002*[#  92]+0.002*[# 100]+0.002*[# 150]
          +0.002*[# 112]+0.002*[# 140]+0.002*[# 142]+0.001*[#  35]+0.001*[#  69]
          +0.001*[#  89]+0.001*[# 133]+0.001*[# 185]+0.001*[# 217]+0.001*[#  48]
          +0.001*[#  62]+0.001*[# 121]+0.001*[# 166]+0.001*[# 190]+0.001*[# 204]
          
    |psi|^2 = 0.996
==== e(  50) =    -5.37523 eV ==== 
     psi = 0.057*[#  50]+0.056*[# 198]+0.033*[# 206]+0.032*[#  42]+0.032*[# 174]
          +0.032*[#  79]+0.028*[# 119]+0.028*[# 131]+0.025*[# 202]+0.025*[#  46]
          +0.024*[# 161]+0.023*[#  84]+0.023*[# 164]+0.022*[#  87]+0.017*[# 106]
          +0.016*[# 156]+0.015*[#  97]+0.015*[# 135]+0.015*[# 147]+0.015*[# 115]
          +0.015*[# 121]+0.015*[# 133]+0.015*[# 177]+0.014*[#  82]+0.013*[#  96]
          +0.013*[#  93]+0.012*[# 139]+0.013*[# 146]+0.012*[# 111]+0.012*[# 143]
          +0.011*[# 102]+0.011*[# 118]+0.011*[# 152]+0.010*[# 130]+0.010*[# 167]
          +0.010*[#  90]+0.010*[#  86]+0.010*[# 163]+0.009*[# 105]+0.009*[# 155]
          +0.008*[# 109]+0.008*[# 117]+0.008*[# 137]+0.007*[# 159]+0.006*[# 100]
          +0.006*[# 113]+0.006*[# 134]+0.006*[# 141]+0.006*[# 150]+0.006*[# 114]
          +0.006*[#  72]+0.006*[# 180]+0.005*[#  95]+0.005*[# 145]+0.005*[#  67]
          +0.005*[# 183]+0.005*[#  99]+0.005*[# 124]+0.005*[# 128]+0.005*[# 149]
          +0.004*[# 104]+0.004*[# 110]+0.004*[# 138]+0.004*[# 154]+0.004*[# 108]
          +0.004*[# 158]+0.004*[#  69]+0.004*[# 185]+0.004*[#  76]+0.004*[# 171]
          +0.003*[#  60]+0.003*[# 188]+0.003*[#  59]+0.003*[# 140]+0.003*[#  64]
          +0.003*[# 112]+0.003*[# 187]+0.003*[# 116]+0.003*[# 136]+0.003*[# 192]
          +0.002*[#  66]+0.002*[# 182]+0.002*[#  65]+0.002*[# 193]+0.002*[#  63]
          +0.002*[# 191]+0.002*[# 103]+0.002*[# 153]+0.002*[#  61]+0.002*[#  62]
          +0.002*[#  94]+0.002*[# 144]+0.002*[# 189]+0.001*[# 190]+0.001*[#  53]
          +0.001*[# 201]+0.001*[#  58]+0.001*[# 186]
    |psi|^2 = 0.998
==== e(  51) =    -5.30965 eV ==== 
     psi = 0.045*[#  88]+0.044*[# 165]+0.031*[# 127]+0.031*[# 123]+0.031*[#  46]
          +0.031*[# 202]+0.027*[#  42]+0.027*[# 194]+0.026*[#  54]+0.026*[# 206]
          +0.026*[#  75]+0.026*[# 170]+0.021*[# 195]+0.021*[#  55]+0.020*[# 179]
          +0.020*[#  71]+0.017*[# 105]+0.017*[# 146]+0.017*[# 155]+0.016*[#  96]
          +0.013*[#  78]+0.013*[# 173]+0.013*[# 211]+0.013*[#  39]+0.013*[#  97]
          +0.013*[# 147]+0.011*[# 102]+0.011*[# 152]+0.011*[# 156]+0.011*[# 106]
          +0.010*[# 143]+0.010*[#  93]+0.010*[# 122]+0.010*[# 126]+0.009*[# 114]
          +0.009*[# 110]+0.009*[# 134]+0.009*[# 138]+0.008*[#  91]+0.008*[# 125]
          +0.008*[# 129]+0.008*[# 168]+0.007*[# 111]+0.007*[# 139]+0.007*[# 149]
          +0.007*[#  81]+0.007*[#  99]+0.007*[# 176]+0.007*[#  63]+0.006*[#  59]
          +0.007*[#  77]+0.007*[# 172]+0.006*[#  70]+0.006*[# 178]+0.006*[# 187]
          +0.006*[# 191]+0.006*[# 108]+0.006*[# 158]+0.005*[# 115]+0.005*[# 135]
          +0.004*[# 101]+0.004*[# 151]+0.004*[#  92]+0.004*[# 142]+0.003*[#  38]
          +0.003*[#  68]+0.003*[# 184]+0.003*[# 210]+0.003*[# 132]+0.003*[# 100]
          +0.003*[# 120]+0.003*[# 150]+0.003*[#  36]+0.003*[#  57]+0.003*[#  94]
          +0.003*[# 144]+0.003*[# 218]+0.002*[#  85]+0.002*[# 103]+0.002*[# 153]
          +0.003*[# 197]+0.002*[# 162]+0.002*[#  52]+0.002*[# 200]+0.002*[# 104]
          +0.002*[# 109]+0.002*[# 113]+0.002*[# 141]+0.002*[# 154]+0.002*[# 159]
          +0.001*[# 116]+0.001*[# 136]+0.001*[#  26]+0.001*[#  64]+0.001*[# 107]
          +0.001*[# 157]+0.001*[# 192]+0.001*[#  98]+0.001*[# 224]
    |psi|^2 = 0.996
==== e(  52) =    -5.18016 eV ==== 
     psi = 0.050*[# 165]+0.049*[#  88]+0.038*[# 123]+0.038*[# 127]+0.034*[#  54]
          +0.034*[# 194]+0.025*[#  55]+0.025*[# 195]+0.021*[#  96]+0.021*[# 146]
          +0.021*[# 202]+0.020*[# 105]+0.020*[#  46]+0.020*[# 155]+0.019*[# 206]
          +0.019*[#  42]+0.017*[# 170]+0.017*[#  75]+0.014*[#  99]+0.014*[# 149]
          +0.014*[# 173]+0.014*[#  78]+0.014*[#  97]+0.014*[# 108]+0.013*[# 147]
          +0.013*[# 158]+0.013*[# 168]+0.013*[#  91]+0.012*[#  39]+0.012*[# 211]
          +0.012*[# 106]+0.012*[# 156]+0.009*[# 102]+0.009*[# 152]+0.007*[#  93]
          +0.007*[# 143]+0.007*[# 113]+0.007*[# 139]+0.007*[# 141]+0.007*[#  59]
          +0.007*[# 100]+0.007*[# 111]+0.007*[# 117]+0.007*[# 137]+0.007*[# 187]
          +0.007*[# 150]+0.006*[# 138]+0.006*[#  63]+0.006*[# 110]+0.006*[# 114]
          +0.006*[# 134]+0.006*[# 109]+0.006*[# 115]+0.006*[# 135]+0.006*[# 191]
          +0.006*[# 125]+0.006*[# 129]+0.006*[# 159]+0.005*[#  73]+0.005*[# 120]
          +0.005*[# 132]+0.006*[# 181]+0.005*[#  81]+0.005*[# 176]+0.004*[#  77]
          +0.004*[# 172]+0.004*[# 122]+0.004*[# 126]+0.003*[# 104]+0.003*[# 154]
          +0.003*[#  95]+0.003*[#  36]+0.003*[#  94]+0.003*[# 145]+0.003*[# 103]
          +0.003*[# 144]+0.003*[# 153]+0.003*[#  38]+0.003*[#  68]+0.003*[# 184]
          +0.003*[# 217]+0.003*[# 210]+0.002*[#  35]+0.003*[# 218]+0.002*[#  92]
          +0.002*[# 101]+0.002*[# 142]+0.002*[# 151]+0.002*[#  64]+0.002*[# 192]
          +0.001*[#  60]+0.001*[#  85]+0.002*[# 162]+0.001*[# 188]+0.001*[# 116]
          +0.001*[# 136]+0.001*[#  61]+0.001*[#  65]+0.001*[# 189]
    |psi|^2 = 0.997
==== e(  53) =    -4.81805 eV ==== 
     psi = 0.061*[#  79]+0.058*[# 174]+0.035*[# 147]+0.033*[# 130]+0.033*[#  97]
          +0.032*[# 118]+0.028*[#  90]+0.027*[# 167]+0.025*[#  87]+0.025*[#  89]
          +0.025*[# 156]+0.025*[# 166]+0.024*[# 164]+0.024*[# 106]+0.021*[# 110]
          +0.020*[# 138]+0.017*[# 133]+0.017*[# 121]+0.016*[# 114]+0.016*[# 134]
          +0.016*[# 158]+0.015*[# 108]+0.015*[# 128]+0.014*[# 124]+0.014*[# 177]
          +0.013*[#  82]+0.013*[# 155]+0.012*[# 105]+0.012*[# 107]+0.012*[# 149]
          +0.012*[# 157]+0.012*[#  99]+0.010*[# 116]+0.010*[# 148]+0.010*[#  98]
          +0.010*[# 146]+0.010*[#  96]+0.010*[# 136]+0.008*[# 100]+0.008*[# 150]
          +0.008*[#  83]+0.007*[# 160]+0.007*[# 112]+0.007*[# 113]+0.007*[# 141]
          +0.007*[# 117]+0.007*[# 137]+0.007*[# 140]+0.006*[# 109]+0.006*[# 180]
          +0.006*[#  72]+0.006*[# 159]+0.005*[# 199]+0.005*[#  51]+0.004*[# 151]
          +0.004*[# 101]+0.003*[#  92]+0.003*[# 142]+0.003*[#  47]+0.003*[#  53]
          +0.003*[#  64]+0.003*[#  56]+0.003*[#  66]+0.003*[# 192]+0.003*[# 196]
          +0.003*[# 201]+0.003*[# 203]+0.003*[# 182]+0.003*[#  60]+0.003*[# 188]
          +0.002*[#  43]+0.002*[# 207]+0.002*[#  44]+0.002*[#  76]+0.002*[# 208]
          +0.002*[# 163]+0.002*[# 171]+0.002*[#  48]+0.002*[#  86]+0.002*[# 186]
          +0.002*[# 204]+0.001*[#  58]+0.001*[# 144]+0.001*[#  62]+0.001*[#  94]
          +0.001*[# 104]+0.001*[# 154]+0.001*[# 190]+0.001*[#  45]+0.001*[#  59]
          +0.001*[#  67]+0.001*[# 183]
    |psi|^2 = 0.995
==== e(  54) =    -4.79854 eV ==== 
     psi = 0.070*[# 174]+0.068*[# 147]+0.068*[#  79]+0.066*[#  97]+0.040*[# 124]
          +0.039*[# 128]+0.030*[# 116]+0.029*[# 136]+0.025*[# 164]+0.024*[#  87]
          +0.024*[# 167]+0.023*[#  90]+0.020*[# 105]+0.020*[# 155]+0.016*[# 108]
          +0.016*[# 158]+0.014*[# 106]+0.013*[# 118]+0.012*[# 130]+0.012*[# 156]
          +0.011*[# 113]+0.011*[# 141]+0.010*[#  88]+0.009*[# 110]+0.009*[# 138]
          +0.009*[# 182]+0.009*[#  66]+0.009*[# 165]+0.008*[# 140]+0.008*[#  58]
          +0.008*[# 186]+0.008*[#  99]+0.007*[# 121]+0.007*[#  82]+0.007*[# 112]
          +0.007*[# 133]+0.007*[#  96]+0.007*[# 149]+0.007*[# 177]+0.006*[# 146]
          +0.005*[#  86]+0.005*[#  76]+0.005*[# 132]+0.005*[# 163]+0.005*[# 171]
          +0.005*[# 101]+0.005*[# 151]+0.005*[# 120]+0.005*[#  94]+0.005*[# 144]
          +0.004*[# 104]+0.004*[# 154]+0.004*[# 160]+0.004*[#  81]+0.004*[#  83]
          +0.004*[# 100]+0.004*[# 150]+0.004*[# 134]+0.004*[# 176]+0.003*[#  51]
          +0.003*[#  49]+0.003*[#  78]+0.003*[# 126]+0.003*[# 199]+0.003*[# 205]
          +0.003*[# 114]+0.003*[# 122]+0.003*[# 166]+0.003*[# 173]+0.002*[#  53]
          +0.002*[#  89]+0.002*[# 201]+0.002*[#  47]+0.002*[#  62]+0.002*[# 203]
          +0.002*[#  56]+0.002*[#  64]+0.002*[# 168]+0.002*[# 190]+0.002*[# 192]
          +0.002*[# 196]+0.002*[#  67]+0.002*[#  91]+0.002*[# 159]+0.002*[#  46]
          +0.002*[# 183]+0.002*[#  72]+0.002*[# 202]+0.001*[# 109]+0.002*[# 117]
          +0.002*[# 137]+0.001*[#  44]+0.001*[#  69]+0.001*[# 145]+0.001*[# 180]
          +0.001*[#  50]+0.001*[#  95]+0.001*[# 103]+0.001*[# 185]+0.001*[# 198]
          +0.001*[# 208]+0.001*[# 153]
    |psi|^2 = 0.995
==== e(  55) =    -4.79456 eV ==== 
     psi = 0.056*[# 165]+0.054*[#  88]+0.045*[# 156]+0.044*[# 106]+0.036*[# 122]
          +0.035*[# 126]+0.034*[#  97]+0.031*[# 147]+0.029*[# 176]+0.028*[#  81]
          +0.024*[# 173]+0.023*[#  91]+0.023*[#  78]+0.022*[# 168]+0.021*[# 175]
          +0.020*[#  80]+0.017*[# 120]+0.016*[# 132]+0.014*[# 114]+0.014*[# 125]
          +0.014*[# 134]+0.014*[# 129]+0.013*[# 117]+0.013*[# 137]+0.013*[# 138]
          +0.012*[# 110]+0.011*[# 108]+0.010*[#  98]+0.010*[# 148]+0.010*[# 149]
          +0.010*[# 158]+0.009*[#  99]+0.009*[# 146]+0.009*[#  96]+0.009*[# 107]
          +0.008*[# 136]+0.008*[# 157]+0.008*[# 112]+0.008*[# 140]+0.007*[# 116]
          +0.006*[# 150]+0.006*[# 169]+0.006*[#  74]+0.006*[# 100]+0.006*[# 113]
          +0.006*[# 141]+0.006*[# 109]+0.005*[#  68]+0.005*[# 159]+0.005*[# 184]
          +0.005*[#  92]+0.005*[# 142]+0.004*[#  60]+0.004*[# 105]+0.004*[# 188]
          +0.003*[# 123]+0.003*[#  77]+0.003*[# 127]+0.003*[# 155]+0.003*[# 172]
          +0.003*[#  79]+0.003*[#  45]+0.003*[#  52]+0.003*[# 101]+0.003*[# 200]
          +0.003*[# 209]+0.003*[#  85]+0.003*[# 151]+0.003*[# 162]+0.003*[# 174]
          +0.003*[# 192]+0.002*[#  43]+0.002*[#  62]+0.003*[#  64]+0.002*[# 178]
          +0.003*[# 190]+0.002*[#  70]+0.002*[# 207]+0.002*[# 203]+0.002*[#  47]
          +0.002*[#  57]+0.002*[# 128]+0.002*[# 197]+0.002*[# 124]+0.002*[#  58]
          +0.002*[#  90]+0.001*[#  39]+0.001*[#  54]+0.001*[# 167]+0.001*[#  49]
          +0.001*[# 186]+0.001*[# 194]+0.001*[# 208]+0.001*[# 211]+0.001*[#  44]
          +0.001*[#  48]+0.001*[#  71]+0.001*[# 103]+0.001*[# 153]+0.001*[# 179]
          +0.001*[# 204]+0.001*[#  87]+0.001*[# 205]
    |psi|^2 = 0.995
==== e(  56) =    -4.77950 eV ==== 
     psi = 0.078*[# 156]+0.077*[# 106]+0.073*[#  88]+0.072*[# 165]+0.037*[# 112]
          +0.037*[# 140]+0.032*[# 132]+0.032*[# 120]+0.029*[#  78]+0.029*[# 173]
          +0.026*[# 147]+0.025*[#  97]+0.022*[#  81]+0.022*[# 176]+0.014*[#  99]
          +0.014*[# 149]+0.012*[# 129]+0.012*[# 125]+0.012*[# 126]+0.012*[# 116]
          +0.012*[# 122]+0.012*[# 136]+0.011*[#  96]+0.011*[# 146]+0.010*[# 114]
          +0.010*[# 134]+0.009*[# 109]+0.009*[# 159]+0.007*[#  62]+0.007*[# 190]
          +0.007*[#  70]+0.007*[# 178]+0.006*[# 174]+0.006*[#  79]+0.006*[#  85]
          +0.006*[# 162]+0.005*[# 168]+0.005*[#  91]+0.005*[#  74]+0.004*[# 169]
          +0.004*[#  95]+0.004*[# 145]+0.004*[# 103]+0.004*[# 153]+0.004*[#  77]
          +0.004*[# 137]+0.004*[# 172]+0.004*[# 117]+0.004*[#  92]+0.004*[# 142]
          +0.003*[# 108]+0.003*[# 124]+0.003*[# 128]+0.003*[# 158]+0.003*[# 100]
          +0.003*[# 110]+0.003*[# 138]+0.003*[# 150]+0.003*[#  43]+0.003*[#  87]
          +0.003*[# 164]+0.003*[# 207]+0.002*[#  54]+0.002*[#  68]+0.003*[# 184]
          +0.003*[# 194]+0.002*[#  90]+0.002*[# 167]+0.002*[#  57]+0.002*[# 197]
          +0.002*[# 105]+0.002*[# 148]+0.002*[# 155]+0.002*[#  58]+0.002*[#  98]
          +0.002*[# 186]+0.002*[#  71]+0.002*[# 179]+0.002*[#  45]+0.002*[# 209]
          +0.001*[#  48]+0.001*[# 204]+0.001*[#  35]+0.001*[#  39]+0.001*[#  60]
          +0.001*[# 188]+0.001*[# 211]+0.001*[# 217]+0.001*[#  63]+0.001*[#  65]
          +0.001*[#  75]+0.001*[#  94]+0.001*[# 104]+0.001*[# 144]+0.001*[# 151]
          +0.001*[# 154]+0.001*[#  52]+0.001*[# 101]+0.001*[# 118]+0.001*[# 130]
          +0.001*[# 170]
    |psi|^2 = 0.996
==== e(  57) =    -4.53274 eV ==== 
     psi = 0.083*[#  88]+0.082*[# 165]+0.049*[#  91]+0.049*[# 168]+0.048*[# 147]
          +0.047*[#  97]+0.035*[# 100]+0.035*[# 150]+0.035*[#  81]+0.035*[# 176]
          +0.031*[# 156]+0.031*[# 106]+0.022*[# 109]+0.022*[# 159]+0.022*[# 108]
          +0.022*[# 158]+0.021*[# 125]+0.021*[# 129]+0.015*[#  78]+0.015*[# 173]
          +0.012*[#  99]+0.012*[# 113]+0.012*[# 141]+0.013*[# 149]+0.007*[# 117]
          +0.007*[# 137]+0.006*[# 105]+0.006*[# 155]+0.006*[#  70]+0.006*[# 178]
          +0.005*[# 107]+0.005*[# 120]+0.005*[# 132]+0.005*[# 157]+0.004*[#  80]
          +0.004*[# 175]+0.004*[#  36]+0.004*[# 116]+0.004*[# 136]+0.004*[# 217]
          +0.003*[#  35]+0.004*[#  57]+0.004*[#  58]+0.004*[# 186]+0.003*[# 197]
          +0.004*[# 218]+0.003*[#  52]+0.003*[# 200]+0.003*[#  73]+0.003*[# 181]
          +0.003*[#  54]+0.003*[# 194]+0.003*[#  98]+0.003*[# 148]+0.003*[# 112]
          +0.003*[# 140]+0.003*[#  49]+0.003*[# 205]+0.002*[#  68]+0.002*[#  96]
          +0.002*[# 146]+0.002*[# 184]+0.002*[#  61]+0.002*[#  33]+0.002*[# 189]
          +0.002*[#  44]+0.002*[#  46]+0.002*[# 202]+0.002*[# 208]+0.002*[# 215]
          +0.002*[#  62]+0.002*[# 190]+0.002*[#  45]+0.002*[#  64]+0.002*[# 209]
          +0.002*[# 104]+0.002*[# 192]+0.001*[#  34]+0.001*[#  77]+0.001*[# 111]
          +0.001*[# 139]+0.001*[# 154]+0.001*[# 172]+0.001*[# 216]+0.001*[#  65]
          +0.001*[#  82]+0.001*[# 177]+0.001*[# 193]+0.001*[#  42]+0.001*[#  71]
          +0.001*[# 115]+0.001*[# 179]+0.001*[# 206]
    |psi|^2 = 0.997
==== e(  58) =    -4.51372 eV ==== 
     psi = 0.080*[# 174]+0.079*[#  79]+0.049*[# 106]+0.048*[# 156]+0.048*[#  82]
          +0.048*[# 177]+0.044*[#  90]+0.044*[# 167]+0.029*[# 109]+0.029*[# 159]
          +0.028*[#  97]+0.028*[# 147]+0.024*[# 149]+0.024*[#  99]+0.020*[# 121]
          +0.020*[# 133]+0.018*[#  87]+0.018*[# 164]+0.017*[# 150]+0.017*[# 100]
          +0.014*[# 117]+0.014*[# 137]+0.013*[# 108]+0.013*[# 158]+0.009*[#  96]
          +0.009*[# 146]+0.009*[# 113]+0.009*[# 141]+0.007*[#  89]+0.007*[# 166]
          +0.007*[#  66]+0.007*[# 105]+0.007*[# 155]+0.007*[# 182]+0.006*[# 124]
          +0.006*[# 128]+0.004*[#  98]+0.004*[# 148]+0.004*[#  53]+0.004*[# 201]
          +0.004*[#  62]+0.004*[# 112]+0.004*[# 140]+0.004*[# 190]+0.004*[#  50]
          +0.004*[# 198]+0.003*[#  69]+0.003*[# 185]+0.002*[#  42]+0.003*[#  45]
          +0.003*[#  72]+0.002*[# 180]+0.002*[#  56]+0.002*[# 206]+0.002*[# 209]
          +0.002*[# 107]+0.002*[# 196]+0.002*[#  58]+0.002*[#  65]+0.002*[# 157]
          +0.002*[# 186]+0.002*[# 193]+0.002*[#  86]+0.002*[# 163]+0.002*[# 116]
          +0.002*[# 136]+0.002*[# 119]+0.002*[# 131]+0.002*[#  46]+0.002*[#  48]
          +0.002*[# 183]+0.002*[# 202]+0.002*[# 204]+0.002*[#  67]+0.001*[#  49]
          +0.002*[#  60]+0.001*[#  88]+0.002*[# 188]+0.001*[# 165]+0.001*[# 205]
          +0.001*[#  61]+0.001*[#  95]+0.001*[# 115]+0.001*[# 135]+0.001*[# 145]
          +0.001*[# 189]+0.001*[#  44]+0.001*[# 208]+0.001*[#  63]
    |psi|^2 = 0.997
==== e(  59) =    -4.41767 eV ==== 
     psi = 0.063*[#  36]+0.053*[#  35]+0.044*[#  88]+0.044*[#  91]+0.043*[# 168]
          +0.040*[# 165]+0.035*[#  33]+0.031*[#  34]+0.027*[# 217]+0.027*[#  97]
[...]
          +0.001*[# 239]+0.001*[# 241]+0.001*[#   7]+0.001*[#  15]+0.001*[#  38]
          +0.001*[#  49]+0.001*[# 137]+0.001*[# 247]+0.001*[#  27]+0.001*[#  37]
          +0.001*[# 112]+0.001*[# 116]+0.001*[#  29]
    |psi|^2 = 0.466
==== e( 159) =     3.20588 eV ==== 
     psi = 0.018*[#  20]+0.013*[# 231]+0.008*[#  16]+0.007*[# 240]+0.006*[# 199]
          +0.006*[# 249]+0.006*[# 194]+0.005*[# 232]+0.005*[#   2]+0.005*[#  11]
          +0.004*[# 204]+0.004*[#  52]+0.004*[#  54]+0.004*[# 236]+0.004*[#  12]
          +0.003*[#  57]+0.003*[# 101]+0.003*[# 172]+0.003*[# 197]+0.003*[# 151]
          +0.003*[#  93]+0.003*[#  70]+0.003*[#  43]+0.003*[# 130]+0.003*[# 162]
          +0.002*[# 104]+0.002*[# 179]+0.002*[# 200]+0.002*[#  48]+0.002*[# 187]
          +0.002*[#  85]+0.002*[# 113]+0.002*[# 131]+0.002*[#  53]+0.002*[#  59]
          +0.002*[# 163]+0.002*[# 210]+0.002*[#  62]+0.002*[#  86]+0.002*[# 184]
          +0.002*[# 205]+0.002*[#  38]+0.002*[#  47]+0.002*[# 110]+0.002*[# 122]
          +0.002*[# 138]+0.002*[# 141]+0.002*[# 169]+0.002*[# 241]+0.002*[# 143]
          +0.002*[# 201]+0.002*[# 206]+0.002*[#  49]+0.002*[#  63]+0.002*[#  68]
          +0.001*[#   7]+0.002*[#  71]+0.002*[# 115]+0.001*[#   8]+0.001*[#  58]
          +0.001*[#  74]+0.001*[#  77]+0.001*[#  56]+0.001*[# 192]+0.001*[# 117]
          +0.001*[# 191]+0.001*[# 242]+0.001*[#  84]+0.001*[#  92]+0.001*[# 178]
          +0.001*[# 180]+0.001*[# 186]
    |psi|^2 = 0.267
==== e( 160) =     3.24716 eV ==== 
     psi = 0.014*[# 199]+0.013*[#  51]+0.008*[# 240]+0.008*[#  43]+0.008*[#  20]
          +0.007*[# 207]+0.007*[# 231]+0.007*[#  70]+0.007*[# 183]+0.006*[#  11]
          +0.006*[#  67]+0.006*[# 187]+0.005*[#  59]+0.005*[# 178]+0.005*[# 236]
          +0.005*[# 172]+0.004*[#  12]+0.004*[#  16]+0.004*[# 138]+0.004*[# 118]
          +0.004*[# 232]+0.004*[#   2]+0.004*[# 110]+0.004*[# 186]+0.004*[# 203]
          +0.003*[#  58]+0.003*[# 119]+0.003*[# 130]+0.003*[# 135]+0.003*[#  47]
          +0.003*[# 206]+0.003*[#  62]+0.003*[# 131]+0.003*[#  77]+0.003*[# 194]
          +0.003*[# 249]+0.003*[#  54]+0.003*[# 210]+0.002*[#  38]+0.002*[# 114]
          +0.002*[# 181]+0.003*[# 198]+0.002*[#   7]+0.002*[#  55]+0.002*[#  61]
          +0.002*[#  42]+0.002*[#  50]+0.002*[#  73]+0.002*[# 104]+0.002*[# 115]
          +0.002*[# 122]+0.002*[# 170]+0.002*[# 208]+0.002*[# 241]+0.002*[#  44]
          +0.002*[# 188]+0.002*[# 190]+0.002*[# 195]+0.002*[# 101]+0.002*[# 189]
          +0.002*[#  53]+0.002*[#  92]+0.001*[#   5]+0.001*[# 201]+0.001*[#  49]
          +0.001*[# 134]+0.001*[#  65]+0.001*[# 117]+0.001*[# 126]+0.001*[# 142]
          +0.001*[# 151]+0.001*[# 205]+0.001*[#  56]+0.001*[# 193]+0.001*[# 196]
          +0.001*[# 243]+0.001*[#  32]+0.001*[#  37]
    |psi|^2 = 0.315

Lowdin Charges: 

     Atom #   1: total charge =   0.7896, s =  0.7896, 
     Atom #   1: total charge =   0.7896, p =  0.0000, pz=  0.0000, px=  0.0000, py=  0.0000, 
     Atom #   1: total charge =   0.7896, d =  0.0000, dz2=  0.0000, dxz=  0.0000, dyz=  0.0000, dx2-y2=  0.0000, dxy=  0.0000, 
     Atom #   2: total charge =   0.7913, s =  0.7913, 
     Atom #   2: total charge =   0.7913, p =  0.0000, pz=  0.0000, px=  0.0000, py=  0.0000, 
     Atom #   2: total charge =   0.7913, d =  0.0000, dz2=  0.0000, dxz=  0.0000, dyz=  0.0000, dx2-y2=  0.0000, dxy=  0.0000, 
     Atom #   3: total charge =   4.1223, s =  0.9621, 
     Atom #   3: total charge =   4.1223, p =  3.1602, pz=  1.1087, px=  1.0220, py=  1.0295, 
     Atom #   3: total charge =   4.1223, d =  0.0000, dz2=  0.0000, dxz=  0.0000, dyz=  0.0000, dx2-y2=  0.0000, dxy=  0.0000, 
     Atom #   4: total charge =   4.1302, s =  0.9599, 
     Atom #   4: total charge =   4.1302, p =  3.1702, pz=  1.1135, px=  1.0250, py=  1.0317, 
     Atom #   4: total charge =   4.1302, d =  0.0000, dz2=  0.0000, dxz=  0.0000, dyz=  0.0000, dx2-y2=  0.0000, dxy=  0.0000, 
     Atom #   5: total charge =   0.7844, s =  0.7844, 
     Atom #   5: total charge =   0.7844, p =  0.0000, pz=  0.0000, px=  0.0000, py=  0.0000, 
     Atom #   5: total charge =   0.7844, d =  0.0000, dz2=  0.0000, dxz=  0.0000, dyz=  0.0000, dx2-y2=  0.0000, dxy=  0.0000, 
     Atom #   6: total charge =   4.1622, s =  0.9528, 
     Atom #   6: total charge =   4.1622, p =  3.2093, pz=  1.0180, px=  1.0892, py=  1.1021, 
     Atom #   6: total charge =   4.1622, d =  0.0000, dz2=  0.0000, dxz=  0.0000, dyz=  0.0000, dx2-y2=  0.0000, dxy=  0.0000, 
     Atom #   7: total charge =   4.1354, s =  0.9596, 
     Atom #   7: total charge =   4.1354, p =  3.1758, pz=  1.0202, px=  1.0678, py=  1.0877, 
     Atom #   7: total charge =   4.1354, d =  0.0000, dz2=  0.0000, dxz=  0.0000, dyz=  0.0000, dx2-y2=  0.0000, dxy=  0.0000, 
     Atom #   8: total charge =   0.7785, s =  0.7785, 
     Atom #   8: total charge =   0.7785, p =  0.0000, pz=  0.0000, px=  0.0000, py=  0.0000, 
     Atom #   8: total charge =   0.7785, d =  0.0000, dz2=  0.0000, dxz=  0.0000, dyz=  0.0000, dx2-y2=  0.0000, dxy=  0.0000, 
     Atom #   9: total charge =   3.8534, s =  0.8932, 
     Atom #   9: total charge =   3.8534, p =  2.9602, pz=  0.9199, px=  1.0170, py=  1.0233, 
     Atom #   9: total charge =   3.8534, d =  0.0000, dz2=  0.0000, dxz=  0.0000, dyz=  0.0000, dx2-y2=  0.0000, dxy=  0.0000, 
     Atom #  10: total charge =   3.8409, s =  0.8912, 
     Atom #  10: total charge =   3.8409, p =  2.9497, pz=  0.9489, px=  1.0014, py=  0.9995, 
     Atom #  10: total charge =   3.8409, d =  0.0000, dz2=  0.0000, dxz=  0.0000, dyz=  0.0000, dx2-y2=  0.0000, dxy=  0.0000, 
     Atom #  11: total charge =   5.1344, s =  1.2119, 
     Atom #  11: total charge =   5.1344, p =  3.9225, pz=  1.1694, px=  1.4040, py=  1.3491, 
     Atom #  11: total charge =   5.1344, d =  0.0000, dz2=  0.0000, dxz=  0.0000, dyz=  0.0000, dx2-y2=  0.0000, dxy=  0.0000, 
     Atom #  12: total charge =   5.1413, s =  1.4157, 
     Atom #  12: total charge =   5.1413, p =  3.7257, pz=  1.1181, px=  1.2868, py=  1.3207, 
     Atom #  12: total charge =   5.1413, d =  0.0000, dz2=  0.0000, dxz=  0.0000, dyz=  0.0000, dx2-y2=  0.0000, dxy=  0.0000, 
     Atom #  13: total charge =   0.6287, s =  0.6287, 
     Atom #  13: total charge =   0.6287, p =  0.0000, pz=  0.0000, px=  0.0000, py=  0.0000, 
     Atom #  13: total charge =   0.6287, d =  0.0000, dz2=  0.0000, dxz=  0.0000, dyz=  0.0000, dx2-y2=  0.0000, dxy=  0.0000, 
     Atom #  14: total charge =   5.0339, s =  1.3347, 
     Atom #  14: total charge =   5.0339, p =  3.6993, pz=  1.3638, px=  1.1906, py=  1.1449, 
     Atom #  14: total charge =   5.0339, d =  0.0000, dz2=  0.0000, dxz=  0.0000, dyz=  0.0000, dx2-y2=  0.0000, dxy=  0.0000, 
     Atom #  15: total charge =   2.5936, s =  0.9480, 
     Atom #  15: total charge =   2.5936, p =  1.6456, pz=  0.4746, px=  0.6333, py=  0.5377, 
     Atom #  15: total charge =   2.5936, d =  0.0000, dz2=  0.0000, dxz=  0.0000, dyz=  0.0000, dx2-y2=  0.0000, dxy=  0.0000, 
     Atom #  16: total charge =   2.6471, s =  0.9451, 
     Atom #  16: total charge =   2.6471, p =  1.7020, pz=  0.5189, px=  0.6332, py=  0.5499, 
     Atom #  16: total charge =   2.6471, d =  0.0000, dz2=  0.0000, dxz=  0.0000, dyz=  0.0000, dx2-y2=  0.0000, dxy=  0.0000, 
     Atom #  17: total charge =   2.6124, s =  0.9510, 
     Atom #  17: total charge =   2.6124, p =  1.6614, pz=  0.4486, px=  0.6604, py=  0.5524, 
     Atom #  17: total charge =   2.6124, d =  0.0000, dz2=  0.0000, dxz=  0.0000, dyz=  0.0000, dx2-y2=  0.0000, dxy=  0.0000, 
     Atom #  18: total charge =   2.4690, s =  0.7758, 
     Atom #  18: total charge =   2.4690, p =  1.6932, pz=  0.4933, px=  0.6384, py=  0.5614, 
     Atom #  18: total charge =   2.4690, d =  0.0000, dz2=  0.0000, dxz=  0.0000, dyz=  0.0000, dx2-y2=  0.0000, dxy=  0.0000, 
     Atom #  19: total charge =   1.7182, s =  0.4245, 
     Atom #  19: total charge =   1.7182, p =  1.2937, pz=  0.3843, px=  0.4274, py=  0.4819, 
     Atom #  19: total charge =   1.7182, d =  0.0000, dz2=  0.0000, dxz=  0.0000, dyz=  0.0000, dx2-y2=  0.0000, dxy=  0.0000, 
     Atom #  20: total charge =   1.6654, s =  0.4249, 
     Atom #  20: total charge =   1.6654, p =  1.2405, pz=  0.3405, px=  0.4219, py=  0.4781, 
     Atom #  20: total charge =   1.6654, d =  0.0000, dz2=  0.0000, dxz=  0.0000, dyz=  0.0000, dx2-y2=  0.0000, dxy=  0.0000, 
     Atom #  21: total charge =   1.6646, s =  0.4243, 
     Atom #  21: total charge =   1.6646, p =  1.2403, pz=  0.3362, px=  0.4218, py=  0.4824, 
     Atom #  21: total charge =   1.6646, d =  0.0000, dz2=  0.0000, dxz=  0.0000, dyz=  0.0000, dx2-y2=  0.0000, dxy=  0.0000, 
     Atom #  22: total charge =   1.6765, s =  0.4227, 
     Atom #  22: total charge =   1.6765, p =  1.2539, pz=  0.3526, px=  0.4263, py=  0.4750, 
     Atom #  22: total charge =   1.6765, d =  0.0000, dz2=  0.0000, dxz=  0.0000, dyz=  0.0000, dx2-y2=  0.0000, dxy=  0.0000, 
     Atom #  23: total charge =  11.8726, s =  0.6386, 
     Atom #  23: total charge =  11.8726, p =  1.6008, pz=  0.5071, px=  0.5645, py=  0.5292, 
     Atom #  23: total charge =  11.8726, d =  9.6332, dz2=  1.9435, dxz=  1.8813, dyz=  1.9439, dx2-y2=  1.9439, dxy=  1.9207, 
     Atom #  24: total charge =  11.8540, s =  0.6366, 
     Atom #  24: total charge =  11.8540, p =  1.5894, pz=  0.4974, px=  0.5663, py=  0.5257, 
     Atom #  24: total charge =  11.8540, d =  9.6280, dz2=  1.9366, dxz=  1.8810, dyz=  1.9430, dx2-y2=  1.9415, dxy=  1.9259, 
     Atom #  25: total charge =  11.8468, s =  0.6288, 
     Atom #  25: total charge =  11.8468, p =  1.5940, pz=  0.5184, px=  0.5557, py=  0.5198, 
     Atom #  25: total charge =  11.8468, d =  9.6240, dz2=  1.9408, dxz=  1.8755, dyz=  1.9412, dx2-y2=  1.9441, dxy=  1.9224, 
     Atom #  26: total charge =  11.8586, s =  0.6275, 
     Atom #  26: total charge =  11.8586, p =  1.6044, pz=  0.5181, px=  0.5584, py=  0.5278, 
     Atom #  26: total charge =  11.8586, d =  9.6267, dz2=  1.9405, dxz=  1.8781, dyz=  1.9415, dx2-y2=  1.9441, dxy=  1.9224, 
     Atom #  27: total charge =   2.7838, s =  0.7786, 
     Atom #  27: total charge =   2.7838, p =  2.0052, pz=  0.7217, px=  0.6274, py=  0.6561, 
     Atom #  27: total charge =   2.7838, d =  0.0000, dz2=  0.0000, dxz=  0.0000, dyz=  0.0000, dx2-y2=  0.0000, dxy=  0.0000, 
     Atom #  28: total charge =   2.7847, s =  0.7816, 
     Atom #  28: total charge =   2.7847, p =  2.0031, pz=  0.7254, px=  0.6211, py=  0.6566, 
     Atom #  28: total charge =   2.7847, d =  0.0000, dz2=  0.0000, dxz=  0.0000, dyz=  0.0000, dx2-y2=  0.0000, dxy=  0.0000, 
     Atom #  29: total charge =   2.7945, s =  0.7886, 
     Atom #  29: total charge =   2.7945, p =  2.0059, pz=  0.6971, px=  0.6505, py=  0.6583, 
     Atom #  29: total charge =   2.7945, d =  0.0000, dz2=  0.0000, dxz=  0.0000, dyz=  0.0000, dx2-y2=  0.0000, dxy=  0.0000, 
     Atom #  30: total charge =   2.7628, s =  0.7987, 
     Atom #  30: total charge =   2.7628, p =  1.9641, pz=  0.6589, px=  0.6499, py=  0.6554, 
     Atom #  30: total charge =   2.7628, d =  0.0000, dz2=  0.0000, dxz=  0.0000, dyz=  0.0000, dx2-y2=  0.0000, dxy=  0.0000, 
     Atom #  31: total charge =   2.7628, s =  0.7988, 
     Atom #  31: total charge =   2.7628, p =  1.9640, pz=  0.6585, px=  0.6497, py=  0.6557, 
     Atom #  31: total charge =   2.7628, d =  0.0000, dz2=  0.0000, dxz=  0.0000, dyz=  0.0000, dx2-y2=  0.0000, dxy=  0.0000, 
     Atom #  32: total charge =   2.7949, s =  0.7881, 
     Atom #  32: total charge =   2.7949, p =  2.0068, pz=  0.6971, px=  0.6511, py=  0.6585, 
     Atom #  32: total charge =   2.7949, d =  0.0000, dz2=  0.0000, dxz=  0.0000, dyz=  0.0000, dx2-y2=  0.0000, dxy=  0.0000, 
     Atom #  33: total charge =   2.7846, s =  0.7816, 
     Atom #  33: total charge =   2.7846, p =  2.0031, pz=  0.7255, px=  0.6212, py=  0.6564, 
     Atom #  33: total charge =   2.7846, d =  0.0000, dz2=  0.0000, dxz=  0.0000, dyz=  0.0000, dx2-y2=  0.0000, dxy=  0.0000, 
     Atom #  34: total charge =   2.7841, s =  0.7786, 
     Atom #  34: total charge =   2.7841, p =  2.0055, pz=  0.7225, px=  0.6271, py=  0.6559, 
     Atom #  34: total charge =   2.7841, d =  0.0000, dz2=  0.0000, dxz=  0.0000, dyz=  0.0000, dx2-y2=  0.0000, dxy=  0.0000, 
     Atom #  35: total charge =  11.8469, s =  0.6288, 
     Atom #  35: total charge =  11.8469, p =  1.5941, pz=  0.5188, px=  0.5556, py=  0.5197, 
     Atom #  35: total charge =  11.8469, d =  9.6239, dz2=  1.9408, dxz=  1.8752, dyz=  1.9413, dx2-y2=  1.9441, dxy=  1.9224, 
     Atom #  36: total charge =  11.8595, s =  0.6274, 
     Atom #  36: total charge =  11.8595, p =  1.6052, pz=  0.5188, px=  0.5586, py=  0.5278, 
     Atom #  36: total charge =  11.8595, d =  9.6269, dz2=  1.9405, dxz=  1.8780, dyz=  1.9417, dx2-y2=  1.9442, dxy=  1.9225, 
     Atom #  37: total charge =  11.8543, s =  0.6366, 
     Atom #  37: total charge =  11.8543, p =  1.5898, pz=  0.4977, px=  0.5663, py=  0.5258, 
     Atom #  37: total charge =  11.8543, d =  9.6279, dz2=  1.9365, dxz=  1.8810, dyz=  1.9430, dx2-y2=  1.9414, dxy=  1.9259, 
     Atom #  38: total charge =  11.8709, s =  0.6389, 
     Atom #  38: total charge =  11.8709, p =  1.5990, pz=  0.5055, px=  0.5645, py=  0.5290, 
     Atom #  38: total charge =  11.8709, d =  9.6330, dz2=  1.9435, dxz=  1.8813, dyz=  1.9438, dx2-y2=  1.9438, dxy=  1.9206, 
     Atom #  39: total charge =   1.6772, s =  0.4227, 
     Atom #  39: total charge =   1.6772, p =  1.2545, pz=  0.3530, px=  0.4265, py=  0.4750, 
     Atom #  39: total charge =   1.6772, d =  0.0000, dz2=  0.0000, dxz=  0.0000, dyz=  0.0000, dx2-y2=  0.0000, dxy=  0.0000, 
     Atom #  40: total charge =   1.6645, s =  0.4243, 
     Atom #  40: total charge =   1.6645, p =  1.2401, pz=  0.3360, px=  0.4218, py=  0.4823, 
     Atom #  40: total charge =   1.6645, d =  0.0000, dz2=  0.0000, dxz=  0.0000, dyz=  0.0000, dx2-y2=  0.0000, dxy=  0.0000, 
     Atom #  41: total charge =   1.7181, s =  0.4247, 
     Atom #  41: total charge =   1.7181, p =  1.2935, pz=  0.3845, px=  0.4270, py=  0.4819, 
     Atom #  41: total charge =   1.7181, d =  0.0000, dz2=  0.0000, dxz=  0.0000, dyz=  0.0000, dx2-y2=  0.0000, dxy=  0.0000, 
     Atom #  42: total charge =   1.6644, s =  0.4250, 
     Atom #  42: total charge =   1.6644, p =  1.2394, pz=  0.3398, px=  0.4215, py=  0.4781, 
     Atom #  42: total charge =   1.6644, d =  0.0000, dz2=  0.0000, dxz=  0.0000, dyz=  0.0000, dx2-y2=  0.0000, dxy=  0.0000, 
     Atom #  43: total charge =   2.4691, s =  0.7755, 
     Atom #  43: total charge =   2.4691, p =  1.6936, pz=  0.4936, px=  0.6374, py=  0.5626, 
     Atom #  43: total charge =   2.4691, d =  0.0000, dz2=  0.0000, dxz=  0.0000, dyz=  0.0000, dx2-y2=  0.0000, dxy=  0.0000, 
     Atom #  44: total charge =   2.6172, s =  0.9506, 
     Atom #  44: total charge =   2.6172, p =  1.6666, pz=  0.4526, px=  0.6607, py=  0.5533, 
     Atom #  44: total charge =   2.6172, d =  0.0000, dz2=  0.0000, dxz=  0.0000, dyz=  0.0000, dx2-y2=  0.0000, dxy=  0.0000, 
     Atom #  45: total charge =   2.6425, s =  0.9453, 
     Atom #  45: total charge =   2.6425, p =  1.6972, pz=  0.5151, px=  0.6332, py=  0.5489, 
     Atom #  45: total charge =   2.6425, d =  0.0000, dz2=  0.0000, dxz=  0.0000, dyz=  0.0000, dx2-y2=  0.0000, dxy=  0.0000, 
     Atom #  46: total charge =   2.5929, s =  0.9481, 
     Atom #  46: total charge =   2.5929, p =  1.6449, pz=  0.4740, px=  0.6332, py=  0.5377, 
     Atom #  46: total charge =   2.5929, d =  0.0000, dz2=  0.0000, dxz=  0.0000, dyz=  0.0000, dx2-y2=  0.0000, dxy=  0.0000, 
     Atom #  47: total charge =   5.0343, s =  1.3347, 
     Atom #  47: total charge =   5.0343, p =  3.6996, pz=  1.3635, px=  1.1628, py=  1.1732, 
     Atom #  47: total charge =   5.0343, d =  0.0000, dz2=  0.0000, dxz=  0.0000, dyz=  0.0000, dx2-y2=  0.0000, dxy=  0.0000, 
     Atom #  48: total charge =   0.6287, s =  0.6287, 
     Atom #  48: total charge =   0.6287, p =  0.0000, pz=  0.0000, px=  0.0000, py=  0.0000, 
     Atom #  48: total charge =   0.6287, d =  0.0000, dz2=  0.0000, dxz=  0.0000, dyz=  0.0000, dx2-y2=  0.0000, dxy=  0.0000, 
     Atom #  49: total charge =   5.1418, s =  1.4159, 
     Atom #  49: total charge =   5.1418, p =  3.7259, pz=  1.1178, px=  1.3029, py=  1.3052, 
     Atom #  49: total charge =   5.1418, d =  0.0000, dz2=  0.0000, dxz=  0.0000, dyz=  0.0000, dx2-y2=  0.0000, dxy=  0.0000, 
     Atom #  50: total charge =   5.1344, s =  1.2114, 
     Atom #  50: total charge =   5.1344, p =  3.9231, pz=  1.1695, px=  1.3773, py=  1.3763, 
     Atom #  50: total charge =   5.1344, d =  0.0000, dz2=  0.0000, dxz=  0.0000, dyz=  0.0000, dx2-y2=  0.0000, dxy=  0.0000, 
     Atom #  51: total charge =   3.8408, s =  0.8912, 
     Atom #  51: total charge =   3.8408, p =  2.9497, pz=  0.9489, px=  0.9996, py=  1.0012, 
     Atom #  51: total charge =   3.8408, d =  0.0000, dz2=  0.0000, dxz=  0.0000, dyz=  0.0000, dx2-y2=  0.0000, dxy=  0.0000, 
     Atom #  52: total charge =   3.8534, s =  0.8933, 
     Atom #  52: total charge =   3.8534, p =  2.9602, pz=  0.9197, px=  1.0201, py=  1.0203, 
     Atom #  52: total charge =   3.8534, d =  0.0000, dz2=  0.0000, dxz=  0.0000, dyz=  0.0000, dx2-y2=  0.0000, dxy=  0.0000, 
     Atom #  53: total charge =   0.7785, s =  0.7785, 
     Atom #  53: total charge =   0.7785, p =  0.0000, pz=  0.0000, px=  0.0000, py=  0.0000, 
     Atom #  53: total charge =   0.7785, d =  0.0000, dz2=  0.0000, dxz=  0.0000, dyz=  0.0000, dx2-y2=  0.0000, dxy=  0.0000, 
     Atom #  54: total charge =   4.1354, s =  0.9596, 
     Atom #  54: total charge =   4.1354, p =  3.1758, pz=  1.0202, px=  1.0780, py=  1.0776, 
     Atom #  54: total charge =   4.1354, d =  0.0000, dz2=  0.0000, dxz=  0.0000, dyz=  0.0000, dx2-y2=  0.0000, dxy=  0.0000, 
     Atom #  55: total charge =   4.1620, s =  0.9528, 
     Atom #  55: total charge =   4.1620, p =  3.2093, pz=  1.0181, px=  1.0960, py=  1.0952, 
     Atom #  55: total charge =   4.1620, d =  0.0000, dz2=  0.0000, dxz=  0.0000, dyz=  0.0000, dx2-y2=  0.0000, dxy=  0.0000, 
     Atom #  56: total charge =   0.7844, s =  0.7844, 
     Atom #  56: total charge =   0.7844, p =  0.0000, pz=  0.0000, px=  0.0000, py=  0.0000, 
     Atom #  56: total charge =   0.7844, d =  0.0000, dz2=  0.0000, dxz=  0.0000, dyz=  0.0000, dx2-y2=  0.0000, dxy=  0.0000, 
     Atom #  57: total charge =   4.1303, s =  0.9599, 
     Atom #  57: total charge =   4.1303, p =  3.1704, pz=  1.1135, px=  1.0281, py=  1.0288, 
     Atom #  57: total charge =   4.1303, d =  0.0000, dz2=  0.0000, dxz=  0.0000, dyz=  0.0000, dx2-y2=  0.0000, dxy=  0.0000, 
     Atom #  58: total charge =   4.1223, s =  0.9621, 
     Atom #  58: total charge =   4.1223, p =  3.1602, pz=  1.1086, px=  1.0261, py=  1.0255, 
     Atom #  58: total charge =   4.1223, d =  0.0000, dz2=  0.0000, dxz=  0.0000, dyz=  0.0000, dx2-y2=  0.0000, dxy=  0.0000, 
     Atom #  59: total charge =   0.7914, s =  0.7914, 
     Atom #  59: total charge =   0.7914, p =  0.0000, pz=  0.0000, px=  0.0000, py=  0.0000, 
     Atom #  59: total charge =   0.7914, d =  0.0000, dz2=  0.0000, dxz=  0.0000, dyz=  0.0000, dx2-y2=  0.0000, dxy=  0.0000, 
     Atom #  60: total charge =   0.7896, s =  0.7896, 
     Atom #  60: total charge =   0.7896, p =  0.0000, pz=  0.0000, px=  0.0000, py=  0.0000, 
     Atom #  60: total charge =   0.7896, d =  0.0000, dz2=  0.0000, dxz=  0.0000, dyz=  0.0000, dx2-y2=  0.0000, dxy=  0.0000, 
     Spilling Parameter:   0.0089

     PROJWFC      :     14.25s CPU     15.76s WALL


   This run was terminated on:  13:17:55   7Oct2024            

=------------------------------------------------------------------------------=
   JOB DONE.
=------------------------------------------------------------------------------=
