
     Program PWSCF v.6.5 starts on 12Sep2024 at 20:50:31 

     This program is part of the open-source Quantum ESPRESSO suite
     for quantum simulation of materials; please cite
         "P. Giannozzi et al., J. Phys.:Condens. Matter 21 395502 (2009);
         "P. Giannozzi et al., J. Phys.:Condens. Matter 29 465901 (2017);
          URL http://www.quantum-espresso.org", 
     in publications or presentations arising from this work. More details at
     http://www.quantum-espresso.org/quote

     Parallel version (MPI), running on    96 processors

     MPI processes distributed on     4 nodes
     R & G space division:  proc/nbgrp/npool/nimage =      96
     Reading input from benzotriazole_relax.in

     Current dimensions of program PWSCF are:
     Max number of different atomic species (ntypx) = 10
     Max number of k-points (npk) =  40000
     Max angular momentum in /pseudopotentials (lmaxx) =  3
               file C.pbe-n-kjpaw_psl.1.0.0.UPF: wavefunction(s)  2S 2P renormalized

     Subspace diagonalization in iterative solution of the eigenvalue problem:
     one sub-group per band group will be used
     scalapack distributed-memory algorithm (size of sub-group:  9*  9 procs)


     Parallelization info
     --------------------
     sticks:   dense  smooth     PW     G-vecs:    dense   smooth      PW
     Min         339     169     44                46107    16295    2184
     Max         340     170     46                46113    16304    2187
     Sum       32581   16281   4273              4426575  1564577  209761


     Title: 
     benzotriazole                                                      


     bravais-lattice index     =            1
     lattice parameter (alat)  =      40.0000  a.u.
     unit-cell volume          =   64000.0000 (a.u.)^3
     number of atoms/cell      =           14
     number of atomic types    =            3
     number of electrons       =        44.00
     number of Kohn-Sham states=           36
     kinetic-energy cutoff     =      32.0000  Ry
     charge density cutoff     =     256.0000  Ry
     convergence threshold     =      1.0E-06
     mixing beta               =       0.7000
     number of iterations used =            8  plain     mixing
     Exchange-correlation= PBE
                           (   1   4   3   4   0   0   0)
     nstep                     =           50


     celldm(1)=  40.000000  celldm(2)=   0.000000  celldm(3)=   0.000000
     celldm(4)=   0.000000  celldm(5)=   0.000000  celldm(6)=   0.000000

     crystal axes: (cart. coord. in units of alat)
               a(1) = (   1.000000   0.000000   0.000000 )  
               a(2) = (   0.000000   1.000000   0.000000 )  
               a(3) = (   0.000000   0.000000   1.000000 )  

     reciprocal axes: (cart. coord. in units 2 pi/alat)
               b(1) = (  1.000000  0.000000  0.000000 )  
               b(2) = (  0.000000  1.000000  0.000000 )  
               b(3) = (  0.000000  0.000000  1.000000 )  


     PseudoPot. # 1 for C  read from file:
     /pseudo/C.pbe-n-kjpaw_psl.1.0.0.UPF
     MD5 check sum: 5d2aebdfa2cae82b50a7e79e9516da0f
     Pseudo is Projector augmented-wave + core cor, Zval =  4.0
     Generated using "atomic" code by A. Dal Corso v.5.1
     Shape of augmentation charge: PSQ
     Using radial grid of 1073 points,  4 beta functions with: 
                l(1) =   0
                l(2) =   0
                l(3) =   1
                l(4) =   1
     Q(r) pseudized with 0 coefficients 


     PseudoPot. # 2 for N  read from file:
     /pseudo/N.pbe-n-radius_5.UPF
     MD5 check sum: 16739722b17309cd8fe442a2ace49922
     Pseudo is Ultrasoft + core correction, Zval =  5.0
     Generated using "atomic" code by A. Dal Corso v.5.1
     Using radial grid of 1085 points,  4 beta functions with: 
                l(1) =   0
                l(2) =   0
                l(3) =   1
                l(4) =   1
     Q(r) pseudized with 0 coefficients 


     PseudoPot. # 3 for H  read from file:
     /pseudo/H.pbe-rrkjus_psl.1.0.0.UPF
     MD5 check sum: f52b6d4d1c606e5624b1dc7b2218f220
     Pseudo is Ultrasoft, Zval =  1.0
     Generated using "atomic" code by A. Dal Corso v.5.1
     Using radial grid of  929 points,  2 beta functions with: 
                l(1) =   0
                l(2) =   0
     Q(r) pseudized with 0 coefficients 


     atomic species   valence    mass     /pseudopotential
        C              4.00    12.01100     C ( 1.00)
        N              5.00    14.00700     N ( 1.00)
        H              1.00     1.00800     H ( 1.00)

     No symmetry found


                                    s                        frac. trans.

      isym =  1     identity                                     

 cryst.   s( 1) = (     1          0          0      )
                  (     0          1          0      )
                  (     0          0          1      )

 cart.    s( 1) = (  1.0000000  0.0000000  0.0000000 )
                  (  0.0000000  1.0000000  0.0000000 )
                  (  0.0000000  0.0000000  1.0000000 )


     point group C_1 (1)    
     there are  1 classes
     the character table:

       E    
A      1.00

     the symmetry operations in each class and the name of the first element:

     E        1
          identity                                               

   Cartesian axes

     site n.     atom                  positions (alat units)
         1           C   tau(   1) = (  -0.1013791   0.0332025   0.0000189  )
         2           C   tau(   2) = (  -0.1017712  -0.0324183   0.0000000  )
         3           C   tau(   3) = (  -0.0465817  -0.0656963  -0.0000047  )
         4           C   tau(   4) = (   0.0112580  -0.0334859  -0.0000094  )
         5           C   tau(   5) = (   0.0113289   0.0329238  -0.0000142  )
         6           C   tau(   6) = (  -0.0456038   0.0657247   0.0000142  )
         7           N   tau(   7) = (   0.0737466   0.0508525  -0.0000047  )
         8           H   tau(   8) = (   0.0899651   0.0937162   0.0000094  )
         9           N   tau(   9) = (   0.1093726  -0.0050267   0.0000094  )
        10           N   tau(  10) = (   0.0719135  -0.0528840   0.0000047  )
        11           H   tau(  11) = (  -0.1455467   0.0587516  -0.0001748  )
        12           H   tau(  12) = (  -0.1462695  -0.0573768   0.0000094  )
        13           H   tau(  13) = (  -0.0474605  -0.1167095   0.0000189  )
        14           H   tau(  14) = (  -0.0457314   0.1167473  -0.0000047  )

   Crystallographic axes

     site n.     atom                  positions (cryst. coord.)
         1           C   tau(   1) = ( -0.1013791  0.0332025  0.0000189  )
         2           C   tau(   2) = ( -0.1017712 -0.0324183  0.0000000  )
         3           C   tau(   3) = ( -0.0465817 -0.0656963 -0.0000047  )
         4           C   tau(   4) = (  0.0112580 -0.0334859 -0.0000094  )
         5           C   tau(   5) = (  0.0113289  0.0329238 -0.0000142  )
         6           C   tau(   6) = ( -0.0456038  0.0657247  0.0000142  )
         7           N   tau(   7) = (  0.0737466  0.0508525 -0.0000047  )
         8           H   tau(   8) = (  0.0899651  0.0937162  0.0000094  )
         9           N   tau(   9) = (  0.1093726 -0.0050267  0.0000094  )
        10           N   tau(  10) = (  0.0719135 -0.0528840  0.0000047  )
        11           H   tau(  11) = ( -0.1455467  0.0587516 -0.0001748  )
        12           H   tau(  12) = ( -0.1462695 -0.0573768  0.0000094  )
        13           H   tau(  13) = ( -0.0474605 -0.1167095  0.0000189  )
        14           H   tau(  14) = ( -0.0457314  0.1167473 -0.0000047  )

     number of k points=     1  Methfessel-Paxton smearing, width (Ry)=  0.0500
                       cart. coord. in units 2pi/alat
        k(    1) = (  -0.5000000  -0.5000000  -0.5000000), wk =   2.0000000

                       cryst. coord.
        k(    1) = (  -0.5000000  -0.5000000  -0.5000000), wk =   2.0000000

     Dense  grid:  4426575 G-vectors     FFT dimensions: ( 216, 216, 216)

     Smooth grid:  1564577 G-vectors     FFT dimensions: ( 150, 150, 150)

     Dynamical RAM for                 wfc:       1.12 MB

     Dynamical RAM for     wfc (w. buffer):       1.12 MB

     Dynamical RAM for           str. fact:       2.11 MB

     Dynamical RAM for           local pot:       0.00 MB

     Dynamical RAM for          nlocal pot:       2.55 MB

     Dynamical RAM for                qrad:       7.00 MB

     Dynamical RAM for          rho,v,vnew:       5.31 MB

     Dynamical RAM for               rhoin:       1.77 MB

     Dynamical RAM for            rho*nmix:      11.26 MB

     Dynamical RAM for           G-vectors:       2.76 MB

     Dynamical RAM for          h,s,v(r/c):       0.01 MB

     Dynamical RAM for          <psi|beta>:       0.05 MB

     Dynamical RAM for                 psi:       4.48 MB

     Dynamical RAM for                hpsi:       4.48 MB

     Dynamical RAM for                spsi:       4.48 MB

     Dynamical RAM for      wfcinit/wfcrot:       2.59 MB

     Dynamical RAM for           addusdens:      34.48 MB

     Dynamical RAM for          addusforce:      58.76 MB

     Estimated static dynamical RAM per process >      42.03 MB

     Estimated max dynamical RAM per process >     100.80 MB

     Estimated total dynamical RAM >       9.45 GB

     Initial potential from superposition of free atoms

     starting charge   43.99968, renormalised to   44.00000

     negative rho (up, down):  1.101E-02 0.000E+00
     Starting wfcs are   41 randomized atomic wfcs
     Checking if some PAW data can be deallocated... 
       PAW data deallocated on   54 nodes for type:  1

     total cpu time spent up to now is       44.2 secs

     Self-consistent Calculation

     iteration #  1     ecut=    32.00 Ry     beta= 0.70
     Davidson diagonalization with overlap
     ethr =  1.00E-02,  avg # of iterations =  7.0

     negative rho (up, down):  1.654E-02 0.000E+00

     total cpu time spent up to now is      171.0 secs

     total energy              =    -176.45179761 Ry
     Harris-Foulkes estimate   =    -177.53504694 Ry
     estimated scf accuracy    <       1.63160623 Ry

     iteration #  2     ecut=    32.00 Ry     beta= 0.70
     Davidson diagonalization with overlap
     ethr =  3.71E-03,  avg # of iterations =  6.0

     negative rho (up, down):  1.952E-02 0.000E+00

     total cpu time spent up to now is      282.3 secs

     total energy              =    -176.64099846 Ry
     Harris-Foulkes estimate   =    -177.09087064 Ry
     estimated scf accuracy    <       0.76721158 Ry

     iteration #  3     ecut=    32.00 Ry     beta= 0.70
     Davidson diagonalization with overlap
     ethr =  1.74E-03,  avg # of iterations =  4.0

     negative rho (up, down):  1.932E-02 0.000E+00

     total cpu time spent up to now is      371.0 secs

     total energy              =    -176.82631410 Ry
     Harris-Foulkes estimate   =    -176.96500003 Ry
     estimated scf accuracy    <       0.32155784 Ry

     iteration #  4     ecut=    32.00 Ry     beta= 0.70
     Davidson diagonalization with overlap
     ethr =  7.31E-04,  avg # of iterations =  4.0

     negative rho (up, down):  1.794E-02 0.000E+00

     total cpu time spent up to now is      435.8 secs

     total energy              =    -176.88383122 Ry
     Harris-Foulkes estimate   =    -176.89223509 Ry
     estimated scf accuracy    <       0.01777570 Ry

     iteration #  5     ecut=    32.00 Ry     beta= 0.70
     Davidson diagonalization with overlap
     c_bands:  1 eigenvalues not converged
     ethr =  4.04E-05,  avg # of iterations = 20.0

     negative rho (up, down):  1.788E-02 0.000E+00

     total cpu time spent up to now is      664.6 secs

     total energy              =    -176.89252923 Ry
     Harris-Foulkes estimate   =    -176.89400217 Ry
     estimated scf accuracy    <       0.00317655 Ry

     iteration #  6     ecut=    32.00 Ry     beta= 0.70
     Davidson diagonalization with overlap
     ethr =  7.22E-06,  avg # of iterations =  7.0

     negative rho (up, down):  1.789E-02 0.000E+00

     total cpu time spent up to now is      759.4 secs

     total energy              =    -176.89309899 Ry
     Harris-Foulkes estimate   =    -176.89319538 Ry
     estimated scf accuracy    <       0.00017515 Ry

     iteration #  7     ecut=    32.00 Ry     beta= 0.70
     Davidson diagonalization with overlap
     ethr =  3.98E-07,  avg # of iterations = 15.0

     negative rho (up, down):  1.790E-02 0.000E+00

     total cpu time spent up to now is      933.5 secs

     total energy              =    -176.89313118 Ry
     Harris-Foulkes estimate   =    -176.89319692 Ry
     estimated scf accuracy    <       0.00014695 Ry

     iteration #  8     ecut=    32.00 Ry     beta= 0.70
     Davidson diagonalization with overlap
     ethr =  3.34E-07,  avg # of iterations =  2.0

     negative rho (up, down):  1.791E-02 0.000E+00

     total cpu time spent up to now is     1001.1 secs

     total energy              =    -176.89316012 Ry
     Harris-Foulkes estimate   =    -176.89316254 Ry
     estimated scf accuracy    <       0.00000470 Ry

     iteration #  9     ecut=    32.00 Ry     beta= 0.70
     Davidson diagonalization with overlap
     ethr =  1.07E-08,  avg # of iterations =  3.0

     negative rho (up, down):  1.791E-02 0.000E+00

     total cpu time spent up to now is     1076.3 secs

     total energy              =    -176.89316125 Ry
     Harris-Foulkes estimate   =    -176.89316250 Ry
     estimated scf accuracy    <       0.00000277 Ry

     iteration # 10     ecut=    32.00 Ry     beta= 0.70
     Davidson diagonalization with overlap
     ethr =  6.30E-09,  avg # of iterations =  2.0

     negative rho (up, down):  1.791E-02 0.000E+00

     total cpu time spent up to now is     1135.5 secs

     End of self-consistent calculation

          k =-0.5000-0.5000-0.5000 (195744 PWs)   bands (ev):

   -27.4216 -22.9228 -21.7899 -19.4315 -18.8583 -16.5552 -15.9825 -15.4763
   -13.8915 -12.9962 -11.7670 -11.6233 -11.2651 -10.8529  -9.3018  -9.0486
    -8.9642  -8.1569  -7.8280  -6.4518  -6.2771  -6.1155  -2.2416  -0.9274
    -0.6999  -0.3893  -0.3798  -0.1441  -0.0804  -0.0105  -0.0008   0.0168
     0.0363   0.1486   0.2422   0.3318

     occupation numbers 
     1.0000   1.0000   1.0000   1.0000   1.0000   1.0000   1.0000   1.0000
     1.0000   1.0000   1.0000   1.0000   1.0000   1.0000   1.0000   1.0000
     1.0000   1.0000   1.0000   1.0000   1.0000   1.0000   0.0004  -0.0003
    -0.0001  -0.0000  -0.0000  -0.0000  -0.0000  -0.0000  -0.0000  -0.0000
    -0.0000  -0.0000  -0.0000  -0.0000

     the Fermi energy is    -2.8132 ev

!    total energy              =    -176.89316175 Ry
     Harris-Foulkes estimate   =    -176.89316187 Ry
     estimated scf accuracy    <       0.00000014 Ry

     The total energy is the sum of the following terms:

     one-electron contribution =    -739.01918050 Ry
     hartree contribution      =     374.66050565 Ry
     xc contribution           =     -47.57380619 Ry
     ewald contribution        =     272.04989361 Ry
     one-center paw contrib.   =     -37.01355405 Ry
      -> PAW hartree energy AE =       9.59016747 Ry
      -> PAW hartree energy PS =      -9.58126301 Ry
      -> PAW xc energy AE      =     -10.70174371 Ry
      -> PAW xc energy PS      =       4.52366330 Ry
      -> total E_H with PAW    =     374.66941011 Ry
      -> total E_XC with PAW   =     -53.75188660 Ry
     smearing contrib. (-TS)   =       0.00297973 Ry

     convergence has been achieved in  10 iterations

     negative rho (up, down):  1.791E-02 0.000E+00

     Forces acting on atoms (cartesian axes, Ry/au):

     atom    1 type  1   force =    -0.01192455    0.00732442   -0.00057496
     atom    2 type  1   force =    -0.01645143   -0.00913823    0.00011864
     atom    3 type  1   force =     0.02813756   -0.03387229    0.00011536
     atom    4 type  1   force =    -0.03322853    0.03156835   -0.00001233
     atom    5 type  1   force =    -0.00079296    0.01888670    0.00022294
     atom    6 type  1   force =     0.01915093    0.04423255   -0.00007623
     atom    7 type  2   force =    -0.08372593   -0.14924719   -0.00002172
     atom    8 type  3   force =     0.05166361    0.07680466    0.00003060
     atom    9 type  2   force =     0.02975355    0.03529177   -0.00003285
     atom   10 type  2   force =     0.04379194   -0.02428268    0.00000113
     atom   11 type  3   force =    -0.01371508    0.00967808    0.00034588
     atom   12 type  3   force =    -0.01436263   -0.00883207   -0.00005479
     atom   13 type  3   force =     0.00333325   -0.01796531   -0.00003777
     atom   14 type  3   force =    -0.00162974    0.01955126   -0.00002389
     The non-local contrib.  to forces
     atom    1 type  1   force =    -0.01027974    0.01820378   -0.00039950
     atom    2 type  1   force =    -0.02200376    0.00582653    0.00043866
     atom    3 type  1   force =     0.11534674    0.00503510    0.00001291
     atom    4 type  1   force =     0.12099507   -0.02241125   -0.00011313
     atom    5 type  1   force =     0.33937834    0.17584966    0.00021155
     atom    6 type  1   force =     0.14454448    0.02471360    0.00034526
     atom    7 type  2   force =    -0.09453926   -0.17630431    0.00017796
     atom    8 type  3   force =    -0.04093091   -0.11115521   -0.00003591
     atom    9 type  2   force =    -2.40593283    0.22856871   -0.00068524
     atom   10 type  2   force =    -0.53224122    2.06711038   -0.00036471
     atom   11 type  3   force =     0.07025257   -0.04046067    0.00034199
     atom   12 type  3   force =     0.07055335    0.03971785   -0.00002038
     atom   13 type  3   force =     0.00141888    0.08131026   -0.00004150
     atom   14 type  3   force =     0.00098006   -0.08040248    0.00002753
     The ionic contribution  to forces
     atom    1 type  1   force =    -7.87432032    3.69165836    0.01035226
     atom    2 type  1   force =    -7.89938538   -3.63602093   -0.00055713
     atom    3 type  1   force =    -2.48795839   -8.13464802   -0.00136306
     atom    4 type  1   force =    -1.67040555   -4.85609987   -0.00266691
     atom    5 type  1   force =    -1.47363348    4.63698658   -0.00482907
     atom    6 type  1   force =    -2.56031717    8.08539279    0.00432016
     atom    7 type  2   force =     6.48796707   10.29195288   -0.00205626
     atom    8 type  3   force =     2.10326619    4.39762394    0.00109566
     atom    9 type  2   force =    16.57026313   -0.15047170    0.00323880
     atom   10 type  2   force =     6.18692055  -14.36213086    0.00147778
     atom   11 type  3   force =    -3.21147368    1.76276468   -0.01016245
     atom   12 type  3   force =    -3.23036154   -1.72869477    0.00056609
     atom   13 type  3   force =    -0.47603674   -3.71194218    0.00125788
     atom   14 type  3   force =    -0.46452466    3.71362910   -0.00067374
     The local contribution  to forces
     atom    1 type  1   force =     7.87082163   -3.70182921   -0.01050554
     atom    2 type  1   force =     7.90275005    3.62071084    0.00024246
     atom    3 type  1   force =     2.40365139    8.09434107    0.00146048
     atom    4 type  1   force =     1.51597961    4.90861187    0.00275828
     atom    5 type  1   force =     1.13906081   -4.78942826    0.00483273
     atom    6 type  1   force =     2.43811548   -8.06396403   -0.00472535
     atom    7 type  2   force =    -6.47803222  -10.26635499    0.00185660
     atom    8 type  3   force =    -2.01071207   -4.20967537   -0.00102916
     atom    9 type  2   force =   -14.15493470   -0.03880321   -0.00259289
     atom   10 type  2   force =    -5.61553299   12.28672662   -0.00111578
     atom   11 type  3   force =     3.12749893   -1.71259051    0.01016628
     atom   12 type  3   force =     3.14543543    1.68014149   -0.00060057
     atom   13 type  3   force =     0.47794194    3.61269970   -0.00125421
     atom   14 type  3   force =     0.46192819   -3.61372541    0.00062247
     The core correction contribution to forces
     atom    1 type  1   force =     0.00208405   -0.00055985   -0.00002205
     atom    2 type  1   force =     0.00231695    0.00029347   -0.00000580
     atom    3 type  1   force =    -0.00290424    0.00142760    0.00000454
     atom    4 type  1   force =     0.00004425    0.00176352    0.00000784
     atom    5 type  1   force =    -0.00566041   -0.00436423    0.00000707
     atom    6 type  1   force =    -0.00295458   -0.00194874   -0.00001583
     atom    7 type  2   force =     0.00046227    0.00140102   -0.00000089
     atom    8 type  3   force =     0.00000000    0.00000000    0.00000000
     atom    9 type  2   force =     0.02010969   -0.00365410    0.00000614
     atom   10 type  2   force =     0.00448569   -0.01590153    0.00000316
     atom   11 type  3   force =     0.00000000    0.00000000    0.00000000
     atom   12 type  3   force =     0.00000000    0.00000000    0.00000000
     atom   13 type  3   force =     0.00000000    0.00000000    0.00000000
     atom   14 type  3   force =     0.00000000    0.00000000    0.00000000
     The Hubbard contrib.    to forces
     atom    1 type  1   force =     0.00000000    0.00000000    0.00000000
     atom    2 type  1   force =     0.00000000    0.00000000    0.00000000
     atom    3 type  1   force =     0.00000000    0.00000000    0.00000000
     atom    4 type  1   force =     0.00000000    0.00000000    0.00000000
     atom    5 type  1   force =     0.00000000    0.00000000    0.00000000
     atom    6 type  1   force =     0.00000000    0.00000000    0.00000000
     atom    7 type  2   force =     0.00000000    0.00000000    0.00000000
     atom    8 type  3   force =     0.00000000    0.00000000    0.00000000
     atom    9 type  2   force =     0.00000000    0.00000000    0.00000000
     atom   10 type  2   force =     0.00000000    0.00000000    0.00000000
     atom   11 type  3   force =     0.00000000    0.00000000    0.00000000
     atom   12 type  3   force =     0.00000000    0.00000000    0.00000000
     atom   13 type  3   force =     0.00000000    0.00000000    0.00000000
     atom   14 type  3   force =     0.00000000    0.00000000    0.00000000
     The SCF correction term to forces
     atom    1 type  1   force =    -0.00023519   -0.00013779   -0.00000009
     atom    2 type  1   force =    -0.00013430    0.00006275    0.00000048
     atom    3 type  1   force =    -0.00000296   -0.00001717    0.00000053
     atom    4 type  1   force =     0.00015307   -0.00028503    0.00000161
     atom    5 type  1   force =     0.00005676   -0.00014617    0.00000071
     atom    6 type  1   force =    -0.00024230    0.00004981   -0.00000044
     atom    7 type  2   force =     0.00041119    0.00006909    0.00000091
     atom    8 type  3   force =     0.00003537    0.00002218    0.00000006
     atom    9 type  2   force =     0.00024323   -0.00033705    0.00000037
     atom   10 type  2   force =     0.00015489   -0.00007640    0.00000072
     atom   11 type  3   force =     0.00000208   -0.00002454    0.00000010
     atom   12 type  3   force =     0.00000511    0.00001424    0.00000010
     atom   13 type  3   force =     0.00000414   -0.00002221    0.00000010
     atom   14 type  3   force =    -0.00001834    0.00006092   -0.00000011

     Total force =     0.225935     Total SCF correction =     0.000819

     BFGS Geometry Optimization

     number of scf cycles    =   1
     number of bfgs steps    =   0

     energy   new            =    -176.8931617501 Ry

     new trust radius        =       0.1711278949 bohr
     new conv_thr            =       0.0000010000 Ry


ATOMIC_POSITIONS (angstrom)
C            -2.1522101997        0.7066759153        0.0000957425
C            -2.1629057198       -0.6910357430        0.0000627810
C            -0.9711102422       -1.4085244425       -0.0000389516
C             0.2207162201       -0.6920947500       -0.0002065250
C             0.2393803858        0.7068944102       -0.0001820233
C            -0.9551657632        1.4146068581        0.0002596589
N             1.5166941469        0.9974217866       -0.0001114963
H             1.9316392029        2.0243432758        0.0002161951
N             2.3308449007       -0.0877244014        0.0001826163
N             1.5453736941       -1.1322498405        0.0001005960
H            -3.0880577060        1.2487214179       -0.0035169686
H            -3.1037003785       -1.2191737324        0.0001710039
H            -1.0028361219       -2.4799068342        0.0003800113
H            -0.9688624191        2.4815460803       -0.0001126403



     Writing output data file /benzotriazole/relax.save/
     NEW-OLD atomic charge density approx. for the potential

     negative rho (up, down):  1.730E-02 0.000E+00

     total cpu time spent up to now is     1142.1 secs

     Self-consistent Calculation

     iteration #  1     ecut=    32.00 Ry     beta= 0.70
     Davidson diagonalization with overlap
     ethr =  1.00E-06,  avg # of iterations = 18.0

     negative rho (up, down):  1.742E-02 0.000E+00

     total cpu time spent up to now is     1425.3 secs

     total energy              =    -176.88021224 Ry
     Harris-Foulkes estimate   =    -176.89040220 Ry
     estimated scf accuracy    <       0.01619024 Ry

     iteration #  2     ecut=    32.00 Ry     beta= 0.70
     Davidson diagonalization with overlap
     ethr =  3.68E-05,  avg # of iterations =  3.0

     negative rho (up, down):  1.834E-02 0.000E+00

     total cpu time spent up to now is     1500.8 secs

     total energy              =    -176.88412109 Ry
     Harris-Foulkes estimate   =    -176.89455063 Ry
     estimated scf accuracy    <       0.02195506 Ry

     iteration #  3     ecut=    32.00 Ry     beta= 0.70
     Davidson diagonalization with overlap
     ethr =  3.68E-05,  avg # of iterations =  2.0

     negative rho (up, down):  1.785E-02 0.000E+00

     total cpu time spent up to now is     1573.8 secs

     total energy              =    -176.88856148 Ry
     Harris-Foulkes estimate   =    -176.88920688 Ry
     estimated scf accuracy    <       0.00127792 Ry

     iteration #  4     ecut=    32.00 Ry     beta= 0.70
     Davidson diagonalization with overlap
     ethr =  2.90E-06,  avg # of iterations =  2.0

     negative rho (up, down):  1.771E-02 0.000E+00

     total cpu time spent up to now is     1645.8 secs

     total energy              =    -176.88884868 Ry
     Harris-Foulkes estimate   =    -176.88903100 Ry
     estimated scf accuracy    <       0.00038775 Ry

     iteration #  5     ecut=    32.00 Ry     beta= 0.70
     Davidson diagonalization with overlap
     ethr =  8.81E-07,  avg # of iterations =  2.0

     negative rho (up, down):  1.767E-02 0.000E+00

     total cpu time spent up to now is     1709.6 secs

     total energy              =    -176.88892754 Ry
     Harris-Foulkes estimate   =    -176.88895099 Ry
     estimated scf accuracy    <       0.00004751 Ry

     iteration #  6     ecut=    32.00 Ry     beta= 0.70
     Davidson diagonalization with overlap
     ethr =  1.08E-07,  avg # of iterations =  2.0

     negative rho (up, down):  1.766E-02 0.000E+00

     total cpu time spent up to now is     1776.1 secs

     total energy              =    -176.88893804 Ry
     Harris-Foulkes estimate   =    -176.88894883 Ry
     estimated scf accuracy    <       0.00002715 Ry

     iteration #  7     ecut=    32.00 Ry     beta= 0.70
     Davidson diagonalization with overlap
     ethr =  6.17E-08,  avg # of iterations =  2.0

     negative rho (up, down):  1.766E-02 0.000E+00

     total cpu time spent up to now is     1832.9 secs

     End of self-consistent calculation

          k =-0.5000-0.5000-0.5000 (195744 PWs)   bands (ev):

   -27.7160 -22.6873 -21.7240 -19.5061 -18.7894 -16.3954 -15.6746 -15.5220
   -13.7004 -13.0271 -11.8308 -11.6271 -11.0169 -10.9793  -9.2484  -8.9916
    -8.8991  -8.0610  -7.9887  -6.4774  -6.3490  -5.9896  -2.2445  -0.9377
    -0.7951  -0.4957  -0.4424  -0.1499  -0.0802  -0.0101  -0.0012   0.0175
     0.0376   0.0725   0.2505   0.3104

     occupation numbers 
     1.0000   1.0000   1.0000   1.0000   1.0000   1.0000   1.0000   1.0000
     1.0000   1.0000   1.0000   1.0000   1.0000   1.0000   1.0000   1.0000
     1.0000   1.0000   1.0000   1.0000   1.0000   1.0000   0.0005  -0.0003
    -0.0001  -0.0000  -0.0000  -0.0000  -0.0000  -0.0000  -0.0000  -0.0000
    -0.0000  -0.0000  -0.0000  -0.0000

     the Fermi energy is    -2.8159 ev

!    total energy              =    -176.88894229 Ry
     Harris-Foulkes estimate   =    -176.88894305 Ry
     estimated scf accuracy    <       0.00000089 Ry

     The total energy is the sum of the following terms:

     one-electron contribution =    -738.40304138 Ry
     hartree contribution      =     374.35333086 Ry
     xc contribution           =     -47.48337103 Ry
     ewald contribution        =     271.65319128 Ry
     one-center paw contrib.   =     -37.01205016 Ry
      -> PAW hartree energy AE =       9.35047849 Ry
      -> PAW hartree energy PS =      -9.34170710 Ry
      -> PAW xc energy AE      =     -10.64371998 Ry
      -> PAW xc energy PS      =       4.46661128 Ry
      -> total E_H with PAW    =     374.36210224 Ry
      -> total E_XC with PAW   =     -53.66047973 Ry
     smearing contrib. (-TS)   =       0.00299813 Ry

     convergence has been achieved in   7 iterations

     negative rho (up, down):  1.766E-02 0.000E+00

     Forces acting on atoms (cartesian axes, Ry/au):

     atom    1 type  1   force =     0.02002118    0.01038111   -0.00040201
     atom    2 type  1   force =     0.01977793   -0.01152188    0.00003123
     atom    3 type  1   force =    -0.02527478    0.01090854    0.00010076
     atom    4 type  1   force =     0.03819174   -0.03460564    0.00004840
     atom    5 type  1   force =    -0.08332064   -0.03361581    0.00013834
     atom    6 type  1   force =    -0.02159542    0.00369631   -0.00009994
     atom    7 type  2   force =     0.13092208    0.17840187    0.00008422
     atom    8 type  3   force =    -0.03196860   -0.11001751   -0.00003581
     atom    9 type  2   force =    -0.02495330   -0.01890573   -0.00004408
     atom   10 type  2   force =    -0.00206469   -0.00369534   -0.00002357
     atom   11 type  3   force =    -0.01155201    0.00855288    0.00029243
     atom   12 type  3   force =    -0.01537872   -0.00899227   -0.00004133
     atom   13 type  3   force =     0.00766296   -0.02779079   -0.00002022
     atom   14 type  3   force =    -0.00046773    0.03720427   -0.00002844
     The non-local contrib.  to forces
     atom    1 type  1   force =     0.02292878    0.02511121   -0.00022751
     atom    2 type  1   force =     0.01207342    0.00790217    0.00030760
     atom    3 type  1   force =     0.04871305    0.04789279    0.00001998
     atom    4 type  1   force =     0.17061719   -0.06265856   -0.00000588
     atom    5 type  1   force =     0.28379165    0.09544724    0.00011852
     atom    6 type  1   force =     0.12198409   -0.02965571    0.00025159
     atom    7 type  2   force =     0.11008089    0.05313094    0.00039840
     atom    8 type  3   force =    -0.02869785   -0.07081415   -0.00002224
     atom    9 type  2   force =    -2.45475832    0.17520218   -0.00066692
     atom   10 type  2   force =    -0.54170758    2.12465160   -0.00037725
     atom   11 type  3   force =     0.07003977   -0.04035030    0.00029874
     atom   12 type  3   force =     0.07078106    0.03991556   -0.00001238
     atom   13 type  3   force =     0.00285789    0.08332262   -0.00003527
     atom   14 type  3   force =     0.00209758   -0.08344175    0.00002699
     The ionic contribution  to forces
     atom    1 type  1   force =    -7.71103701    3.66566305    0.00639738
     atom    2 type  1   force =    -7.72652298   -3.64895306    0.00093860
     atom    3 type  1   force =    -2.61279654   -8.12823257   -0.00064251
     atom    4 type  1   force =    -1.40222567   -4.90957547   -0.00307825
     atom    5 type  1   force =    -2.08247824    4.73401319   -0.00271377
     atom    6 type  1   force =    -2.72613593    8.05082259    0.00442816
     atom    7 type  2   force =     6.79549243   11.10601356   -0.00245202
     atom    8 type  3   force =     1.88003624    3.69295825    0.00084309
     atom    9 type  2   force =    16.90423865   -0.33203524    0.00304549
     atom   10 type  2   force =     6.06065678  -14.28860444    0.00142686
     atom   11 type  3   force =    -3.19194175    1.75256608   -0.00910228
     atom   12 type  3   force =    -3.21583229   -1.72422682    0.00042579
     atom   13 type  3   force =    -0.49203566   -3.72939978    0.00110991
     atom   14 type  3   force =    -0.47941803    3.75899067   -0.00062645
     The local contribution  to forces
     atom    1 type  1   force =     7.70764888   -3.67946103   -0.00655724
     atom    2 type  1   force =     7.73331034    3.62969275   -0.00120727
     atom    3 type  1   force =     2.54006803    8.09083357    0.00072138
     atom    4 type  1   force =     1.27257419    4.93470868    0.00312661
     atom    5 type  1   force =     1.71685613   -4.86073686    0.00272941
     atom    6 type  1   force =     2.58417735   -8.01691007   -0.00476383
     atom    7 type  2   force =    -6.77279293  -10.97940885    0.00214157
     atom    8 type  3   force =    -1.88324390   -3.73204811   -0.00085651
     atom    9 type  2   force =   -14.49513828    0.13937583   -0.00242785
     atom   10 type  2   force =    -5.52623606   12.17666273   -0.00107633
     atom   11 type  3   force =     3.11046749   -1.70367948    0.00909641
     atom   12 type  3   force =     3.12969144    1.67537776   -0.00045460
     atom   13 type  3   force =     0.49691496    3.61827787   -0.00109471
     atom   14 type  3   force =     0.47681554   -3.63847441    0.00057121
     The core correction contribution to forces
     atom    1 type  1   force =     0.00086290   -0.00076964   -0.00001382
     atom    2 type  1   force =     0.00101017    0.00038113   -0.00000680
     atom    3 type  1   force =    -0.00096106    0.00071952    0.00000265
     atom    4 type  1   force =    -0.00232049    0.00282625    0.00000633
     atom    5 type  1   force =    -0.00216938   -0.00276451    0.00000465
     atom    6 type  1   force =    -0.00204625   -0.00080661   -0.00001521
     atom    7 type  2   force =    -0.00211436   -0.00192364   -0.00000290
     atom    8 type  3   force =     0.00000000    0.00000000    0.00000000
     atom    9 type  2   force =     0.02032394   -0.00256016    0.00000592
     atom   10 type  2   force =     0.00486095   -0.01687084    0.00000338
     atom   11 type  3   force =     0.00000000    0.00000000    0.00000000
     atom   12 type  3   force =     0.00000000    0.00000000    0.00000000
     atom   13 type  3   force =     0.00000000    0.00000000    0.00000000
     atom   14 type  3   force =     0.00000000    0.00000000    0.00000000
     The Hubbard contrib.    to forces
     atom    1 type  1   force =     0.00000000    0.00000000    0.00000000
     atom    2 type  1   force =     0.00000000    0.00000000    0.00000000
     atom    3 type  1   force =     0.00000000    0.00000000    0.00000000
     atom    4 type  1   force =     0.00000000    0.00000000    0.00000000
     atom    5 type  1   force =     0.00000000    0.00000000    0.00000000
     atom    6 type  1   force =     0.00000000    0.00000000    0.00000000
     atom    7 type  2   force =     0.00000000    0.00000000    0.00000000
     atom    8 type  3   force =     0.00000000    0.00000000    0.00000000
     atom    9 type  2   force =     0.00000000    0.00000000    0.00000000
     atom   10 type  2   force =     0.00000000    0.00000000    0.00000000
     atom   11 type  3   force =     0.00000000    0.00000000    0.00000000
     atom   12 type  3   force =     0.00000000    0.00000000    0.00000000
     atom   13 type  3   force =     0.00000000    0.00000000    0.00000000
     atom   14 type  3   force =     0.00000000    0.00000000    0.00000000
     The SCF correction term to forces
     atom    1 type  1   force =    -0.00035830   -0.00015297   -0.00000077
     atom    2 type  1   force =    -0.00006895   -0.00053538   -0.00000086
     atom    3 type  1   force =    -0.00027420   -0.00029528   -0.00000070
     atom    4 type  1   force =    -0.00042940    0.00010295   -0.00000037
     atom    5 type  1   force =     0.00070328    0.00043463   -0.00000043
     atom    6 type  1   force =     0.00044940    0.00025561   -0.00000060
     atom    7 type  2   force =     0.00028012    0.00059936   -0.00000079
     atom    8 type  3   force =    -0.00003902   -0.00010400   -0.00000011
     atom    9 type  2   force =     0.00040479    0.00112115   -0.00000067
     atom   10 type  2   force =     0.00038529    0.00047511   -0.00000020
     atom   11 type  3   force =    -0.00009345    0.00002609   -0.00000040
     atom   12 type  3   force =     0.00000515   -0.00004927   -0.00000010
     atom   13 type  3   force =    -0.00005016    0.00001801   -0.00000011
     atom   14 type  3   force =     0.00006125    0.00013925   -0.00000016

     Total force =     0.280767     Total SCF correction =     0.002009

     number of scf cycles    =   2
     number of bfgs steps    =   1

     energy   old            =    -176.8931617501 Ry
     energy   new            =    -176.8889422946 Ry

     CASE: energy  _new > energy  _old

     new trust radius        =       0.0790313232 bohr
     new conv_thr            =       0.0000010000 Ry


ATOMIC_POSITIONS (angstrom)
C            -2.1488142147        0.7045899987        0.0002594859
C            -2.1582205284       -0.6884332722        0.0000289939
C            -0.9791235217       -1.3988779749       -0.0000718063
C             0.2301793520       -0.7010850801       -0.0002030134
C             0.2396062112        0.7015156792       -0.0002455153
C            -0.9606197452        1.4020098973        0.0002813694
N             1.5405384020        1.0399258021       -0.0001053093
H             1.9169259567        2.0024701244        0.0002074793
N             2.3223714056       -0.0977751217        0.0001919718
N             1.5329022161       -1.1253343913        0.0001002752
H            -3.0841517978        1.2459652043       -0.0036154713
H            -3.0996100529       -1.2166584515        0.0001866088
H            -1.0037853951       -2.4747905039        0.0003907687
H            -0.9683982876        2.4759780896       -0.0001058376



     Writing output data file /benzotriazole/relax.save/
     NEW-OLD atomic charge density approx. for the potential

     negative rho (up, down):  1.767E-02 0.000E+00

     total cpu time spent up to now is     1838.1 secs

     Self-consistent Calculation

     iteration #  1     ecut=    32.00 Ry     beta= 0.70
     Davidson diagonalization with overlap
     ethr =  1.00E-06,  avg # of iterations =  8.0

     negative rho (up, down):  1.774E-02 0.000E+00

     total cpu time spent up to now is     2040.1 secs

     total energy              =    -176.90301087 Ry
     Harris-Foulkes estimate   =    -176.90465279 Ry
     estimated scf accuracy    <       0.00359906 Ry

     iteration #  2     ecut=    32.00 Ry     beta= 0.70
     Davidson diagonalization with overlap
     ethr =  8.18E-06,  avg # of iterations =  2.0

     negative rho (up, down):  1.790E-02 0.000E+00

     total cpu time spent up to now is     2111.9 secs

     total energy              =    -176.90342399 Ry
     Harris-Foulkes estimate   =    -176.90448205 Ry
     estimated scf accuracy    <       0.00188461 Ry

     iteration #  3     ecut=    32.00 Ry     beta= 0.70
     Davidson diagonalization with overlap
     ethr =  4.28E-06,  avg # of iterations =  2.0

     negative rho (up, down):  1.782E-02 0.000E+00

     total cpu time spent up to now is     2184.0 secs

     total energy              =    -176.90389006 Ry
     Harris-Foulkes estimate   =    -176.90409516 Ry
     estimated scf accuracy    <       0.00044416 Ry

     iteration #  4     ecut=    32.00 Ry     beta= 0.70
     Davidson diagonalization with overlap
     ethr =  1.01E-06,  avg # of iterations =  3.0

     negative rho (up, down):  1.780E-02 0.000E+00

     total cpu time spent up to now is     2252.8 secs

     total energy              =    -176.90398082 Ry
     Harris-Foulkes estimate   =    -176.90401750 Ry
     estimated scf accuracy    <       0.00008265 Ry

     iteration #  5     ecut=    32.00 Ry     beta= 0.70
     Davidson diagonalization with overlap
     ethr =  1.88E-07,  avg # of iterations =  2.0

     negative rho (up, down):  1.779E-02 0.000E+00

     total cpu time spent up to now is     2318.3 secs

     total energy              =    -176.90399781 Ry
     Harris-Foulkes estimate   =    -176.90400086 Ry
     estimated scf accuracy    <       0.00000663 Ry

     iteration #  6     ecut=    32.00 Ry     beta= 0.70
     Davidson diagonalization with overlap
     ethr =  1.51E-08,  avg # of iterations =  2.0

     negative rho (up, down):  1.778E-02 0.000E+00

     total cpu time spent up to now is     2382.5 secs

     total energy              =    -176.90399942 Ry
     Harris-Foulkes estimate   =    -176.90400016 Ry
     estimated scf accuracy    <       0.00000174 Ry

     iteration #  7     ecut=    32.00 Ry     beta= 0.70
     Davidson diagonalization with overlap
     ethr =  3.96E-09,  avg # of iterations =  2.0

     negative rho (up, down):  1.778E-02 0.000E+00

     total cpu time spent up to now is     2444.7 secs

     End of self-consistent calculation

          k =-0.5000-0.5000-0.5000 (195744 PWs)   bands (ev):

   -27.5380 -22.7929 -21.7565 -19.4506 -18.8213 -16.3534 -15.9315 -15.5129
   -13.8056 -13.0197 -11.7046 -11.6999 -11.1455 -10.9173  -9.2738  -9.0174
    -8.9315  -8.1143  -7.9005  -6.4600  -6.3111  -6.0564  -2.2311  -0.8612
    -0.7747  -0.4441  -0.4095  -0.1459  -0.0805  -0.0102  -0.0011   0.0180
     0.0370   0.1167   0.2469   0.3236

     occupation numbers 
     1.0000   1.0000   1.0000   1.0000   1.0000   1.0000   1.0000   1.0000
     1.0000   1.0000   1.0000   1.0000   1.0000   1.0000   1.0000   1.0000
     1.0000   1.0000   1.0000   1.0000   1.0000   1.0000   0.0003  -0.0002
    -0.0001  -0.0000  -0.0000  -0.0000  -0.0000  -0.0000  -0.0000  -0.0000
    -0.0000  -0.0000  -0.0000  -0.0000

     the Fermi energy is    -2.8028 ev

!    total energy              =    -176.90399970 Ry
     Harris-Foulkes estimate   =    -176.90399984 Ry
     estimated scf accuracy    <       0.00000015 Ry

     The total energy is the sum of the following terms:

     one-electron contribution =    -738.71457659 Ry
     hartree contribution      =     374.51099901 Ry
     xc contribution           =     -47.52775419 Ry
     ewald contribution        =     271.83703877 Ry
     one-center paw contrib.   =     -37.01267757 Ry
      -> PAW hartree energy AE =       9.47702936 Ry
      -> PAW hartree energy PS =      -9.46818865 Ry
      -> PAW xc energy AE      =     -10.67440273 Ry
      -> PAW xc energy PS      =       4.49679057 Ry
      -> total E_H with PAW    =     374.51983972 Ry
      -> total E_XC with PAW   =     -53.70536635 Ry
     smearing contrib. (-TS)   =       0.00297087 Ry

     convergence has been achieved in   7 iterations

     negative rho (up, down):  1.778E-02 0.000E+00

     Forces acting on atoms (cartesian axes, Ry/au):

     atom    1 type  1   force =     0.00337814    0.00893631   -0.00049709
     atom    2 type  1   force =     0.00110290   -0.01060735    0.00007832
     atom    3 type  1   force =     0.00250129   -0.01274792    0.00010855
     atom    4 type  1   force =     0.00323489    0.00103960    0.00001674
     atom    5 type  1   force =    -0.03407985   -0.00544055    0.00018279
     atom    6 type  1   force =    -0.00029046    0.02525387   -0.00008627
     atom    7 type  2   force =     0.01890686    0.02160683    0.00003744
     atom    8 type  3   force =     0.00550045   -0.03167963   -0.00000763
     atom    9 type  2   force =     0.00257284    0.01149475   -0.00003920
     atom   10 type  2   force =     0.02044838   -0.01329197   -0.00001118
     atom   11 type  3   force =    -0.01272647    0.00915981    0.00032105
     atom   12 type  3   force =    -0.01481672   -0.00891662   -0.00004829
     atom   13 type  3   force =     0.00537110   -0.02243173   -0.00002939
     atom   14 type  3   force =    -0.00110335    0.02762457   -0.00002585
     The non-local contrib.  to forces
     atom    1 type  1   force =     0.00528417    0.02162387   -0.00032262
     atom    2 type  1   force =    -0.00602234    0.00646772    0.00037991
     atom    3 type  1   force =     0.08370893    0.02504235    0.00001636
     atom    4 type  1   force =     0.14524458   -0.04189302   -0.00006323
     atom    5 type  1   force =     0.31593071    0.13923332    0.00016945
     atom    6 type  1   force =     0.13373087    0.00012548    0.00030300
     atom    7 type  2   force =     0.00451582   -0.05843000    0.00028248
     atom    8 type  3   force =    -0.03472984   -0.09014445   -0.00002869
     atom    9 type  2   force =    -2.42719303    0.20851436   -0.00067712
     atom   10 type  2   force =    -0.53801979    2.09745392   -0.00037191
     atom   11 type  3   force =     0.07015258   -0.04040794    0.00032195
     atom   12 type  3   force =     0.07065841    0.03980790   -0.00001669
     atom   13 type  3   force =     0.00207140    0.08224207   -0.00003868
     atom   14 type  3   force =     0.00148967   -0.08179112    0.00002729
     The ionic contribution  to forces
     atom    1 type  1   force =    -7.79773875    3.67933683    0.00850500
     atom    2 type  1   force =    -7.81818716   -3.64242484    0.00013963
     atom    3 type  1   force =    -2.54844920   -8.13047162   -0.00102967
     atom    4 type  1   force =    -1.53586195   -4.87903483   -0.00285288
     atom    5 type  1   force =    -1.74807856    4.67043723   -0.00387129
     atom    6 type  1   force =    -2.63955574    8.06833541    0.00438144
     atom    7 type  2   force =     6.63648956   10.72669741   -0.00220654
     atom    8 type  3   force =     1.99309216    4.03834743    0.00096504
     atom    9 type  2   force =    16.71639158   -0.24945649    0.00314868
     atom   10 type  2   force =     6.12249831  -14.32766558    0.00145235
     atom   11 type  3   force =    -3.20242534    1.75799979   -0.00967132
     atom   12 type  3   force =    -3.22357687   -1.72660126    0.00050137
     atom   13 type  3   force =    -0.48325198   -3.72000842    0.00119028
     atom   14 type  3   force =    -0.47134606    3.73450894   -0.00065209
     The local contribution  to forces
     atom    1 type  1   force =     7.79411962   -3.69125503   -0.00866138
     atom    2 type  1   force =     7.82343618    3.62481860   -0.00043526
     atom    3 type  1   force =     2.46923240    8.09135757    0.00111813
     atom    4 type  1   force =     1.39527817    4.91972715    0.00292555
     atom    5 type  1   force =     1.40268357   -4.81141520    0.00387821
     atom    6 type  1   force =     2.50821426   -8.04155588   -0.00475531
     atom    7 type  2   force =    -6.62104834  -10.64648888    0.00196337
     atom    8 type  3   force =    -1.95285289   -3.97992117   -0.00094404
     atom    9 type  2   force =   -14.30682948    0.05583734   -0.00251714
     atom   10 type  2   force =    -5.56836160   12.23359000   -0.00109501
     atom   11 type  3   force =     3.11949976   -1.70838729    0.00967020
     atom   12 type  3   force =     3.13807039    1.67785871   -0.00053306
     atom   13 type  3   force =     0.48655554    3.61530963   -0.00118100
     atom   14 type  3   force =     0.46877631   -3.62501955    0.00059887
     The core correction contribution to forces
     atom    1 type  1   force =     0.00150667   -0.00065527   -0.00001852
     atom    2 type  1   force =     0.00169764    0.00034010   -0.00000646
     atom    3 type  1   force =    -0.00197428    0.00108369    0.00000359
     atom    4 type  1   force =    -0.00109062    0.00227181    0.00000722
     atom    5 type  1   force =    -0.00412554   -0.00358398    0.00000628
     atom    6 type  1   force =    -0.00251383   -0.00142671   -0.00001558
     atom    7 type  2   force =    -0.00077690   -0.00032203   -0.00000192
     atom    8 type  3   force =     0.00000000    0.00000000    0.00000000
     atom    9 type  2   force =     0.02020950   -0.00318599    0.00000603
     atom   10 type  2   force =     0.00468351   -0.01639000    0.00000323
     atom   11 type  3   force =     0.00000000    0.00000000    0.00000000
     atom   12 type  3   force =     0.00000000    0.00000000    0.00000000
     atom   13 type  3   force =     0.00000000    0.00000000    0.00000000
     atom   14 type  3   force =     0.00000000    0.00000000    0.00000000
     The Hubbard contrib.    to forces
     atom    1 type  1   force =     0.00000000    0.00000000    0.00000000
     atom    2 type  1   force =     0.00000000    0.00000000    0.00000000
     atom    3 type  1   force =     0.00000000    0.00000000    0.00000000
     atom    4 type  1   force =     0.00000000    0.00000000    0.00000000
     atom    5 type  1   force =     0.00000000    0.00000000    0.00000000
     atom    6 type  1   force =     0.00000000    0.00000000    0.00000000
     atom    7 type  2   force =     0.00000000    0.00000000    0.00000000
     atom    8 type  3   force =     0.00000000    0.00000000    0.00000000
     atom    9 type  2   force =     0.00000000    0.00000000    0.00000000
     atom   10 type  2   force =     0.00000000    0.00000000    0.00000000
     atom   11 type  3   force =     0.00000000    0.00000000    0.00000000
     atom   12 type  3   force =     0.00000000    0.00000000    0.00000000
     atom   13 type  3   force =     0.00000000    0.00000000    0.00000000
     atom   14 type  3   force =     0.00000000    0.00000000    0.00000000
     The SCF correction term to forces
     atom    1 type  1   force =     0.00021194   -0.00009932    0.00000040
     atom    2 type  1   force =     0.00018410    0.00020584    0.00000047
     atom    3 type  1   force =    -0.00001106    0.00025486    0.00000011
     atom    4 type  1   force =    -0.00032979   -0.00001674    0.00000004
     atom    5 type  1   force =    -0.00048452   -0.00009714    0.00000011
     atom    6 type  1   force =    -0.00016050   -0.00020966    0.00000016
     atom    7 type  2   force =    -0.00026778    0.00016510    0.00000002
     atom    8 type  3   force =    -0.00000348    0.00005333    0.00000003
     atom    9 type  2   force =    -0.00000022   -0.00019970    0.00000032
     atom   10 type  2   force =    -0.00034653   -0.00026554    0.00000012
     atom   11 type  3   force =     0.00005204   -0.00002998    0.00000020
     atom   12 type  3   force =     0.00003685    0.00003279    0.00000005
     atom   13 type  3   force =     0.00000163    0.00003977   -0.00000001
     atom   14 type  3   force =    -0.00001776   -0.00005893    0.00000004

     Total force =     0.081533     Total SCF correction =     0.000981

     number of scf cycles    =   3
     number of bfgs steps    =   1

     energy   old            =    -176.8931617501 Ry
     energy   new            =    -176.9039997023 Ry

     CASE: energy  _new < energy  _old

     new trust radius        =       0.0329020205 bohr
     new conv_thr            =       0.0000003408 Ry


ATOMIC_POSITIONS (angstrom)
C            -2.1479836172        0.7096690216       -0.0000354615
C            -2.1588804506       -0.6944949777        0.0000775467
C            -0.9757677155       -1.4078600458       -0.0000081543
C             0.2293577159       -0.6982168439       -0.0001954289
C             0.2222488523        0.7001544147       -0.0001362014
C            -0.9593472866        1.4181079882        0.0002319297
N             1.5439277010        1.0398276925       -0.0000879159
H             1.9235483734        1.9920843463        0.0002058748
N             2.3258833441       -0.0893239020        0.0001696401
N             1.5465284198       -1.1338816203        0.0000946820
H            -3.0916284812        1.2513321804       -0.0034268631
H            -3.1081957382       -1.2218392590        0.0001580324
H            -1.0008119504       -2.4875085941        0.0003730514
H            -0.9690791669        2.4914495991       -0.0001207319



     Writing output data file /benzotriazole/relax.save/
     NEW-OLD atomic charge density approx. for the potential

     negative rho (up, down):  1.767E-02 0.000E+00

     total cpu time spent up to now is     2450.2 secs

     Self-consistent Calculation

     iteration #  1     ecut=    32.00 Ry     beta= 0.70
     Davidson diagonalization with overlap
     ethr =  1.00E-06,  avg # of iterations =  4.0

     negative rho (up, down):  1.762E-02 0.000E+00

     total cpu time spent up to now is     2609.0 secs

     total energy              =    -176.90736565 Ry
     Harris-Foulkes estimate   =    -176.90739103 Ry
     estimated scf accuracy    <       0.00127862 Ry

     iteration #  2     ecut=    32.00 Ry     beta= 0.70
     Davidson diagonalization with overlap
     ethr =  2.91E-06,  avg # of iterations =  2.0

     negative rho (up, down):  1.775E-02 0.000E+00

     total cpu time spent up to now is     2678.0 secs

     total energy              =    -176.90743107 Ry
     Harris-Foulkes estimate   =    -176.90810112 Ry
     estimated scf accuracy    <       0.00133951 Ry

     iteration #  3     ecut=    32.00 Ry     beta= 0.70
     Davidson diagonalization with overlap
     ethr =  2.91E-06,  avg # of iterations =  2.0

     negative rho (up, down):  1.768E-02 0.000E+00

     total cpu time spent up to now is     2744.9 secs

     total energy              =    -176.90773495 Ry
     Harris-Foulkes estimate   =    -176.90783789 Ry
     estimated scf accuracy    <       0.00024322 Ry

     iteration #  4     ecut=    32.00 Ry     beta= 0.70
     Davidson diagonalization with overlap
     ethr =  5.53E-07,  avg # of iterations =  2.0

     negative rho (up, down):  1.765E-02 0.000E+00

     total cpu time spent up to now is     2802.7 secs

     total energy              =    -176.90778444 Ry
     Harris-Foulkes estimate   =    -176.90779420 Ry
     estimated scf accuracy    <       0.00002155 Ry

     iteration #  5     ecut=    32.00 Ry     beta= 0.70
     Davidson diagonalization with overlap
     ethr =  4.90E-08,  avg # of iterations =  2.0

     negative rho (up, down):  1.764E-02 0.000E+00

     total cpu time spent up to now is     2866.3 secs

     total energy              =    -176.90778870 Ry
     Harris-Foulkes estimate   =    -176.90779039 Ry
     estimated scf accuracy    <       0.00000344 Ry

     iteration #  6     ecut=    32.00 Ry     beta= 0.70
     Davidson diagonalization with overlap
     ethr =  7.83E-09,  avg # of iterations =  2.0

     negative rho (up, down):  1.764E-02 0.000E+00

     total cpu time spent up to now is     2929.7 secs

     End of self-consistent calculation

          k =-0.5000-0.5000-0.5000 (195744 PWs)   bands (ev):

   -27.4371 -22.6816 -21.7507 -19.3772 -18.8520 -16.3061 -15.9185 -15.4774
   -13.8035 -12.9496 -11.6373 -11.6316 -11.1659 -10.9796  -9.2497  -9.0158
    -8.9334  -8.0333  -7.9181  -6.4558  -6.3556  -6.0763  -2.2366  -0.9111
    -0.7568  -0.5327  -0.4118  -0.1488  -0.0829  -0.0105  -0.0014   0.0185
     0.0371   0.1223   0.2417   0.3215

     occupation numbers 
     1.0000   1.0000   1.0000   1.0000   1.0000   1.0000   1.0000   1.0000
     1.0000   1.0000   1.0000   1.0000   1.0000   1.0000   1.0000   1.0000
     1.0000   1.0000   1.0000   1.0000   1.0000   1.0000   0.0004  -0.0003
    -0.0001  -0.0000  -0.0000  -0.0000  -0.0000  -0.0000  -0.0000  -0.0000
    -0.0000  -0.0000  -0.0000  -0.0000

     the Fermi energy is    -2.8081 ev

!    total energy              =    -176.90778941 Ry
     Harris-Foulkes estimate   =    -176.90778968 Ry
     estimated scf accuracy    <       0.00000033 Ry

     The total energy is the sum of the following terms:

     one-electron contribution =    -736.32943535 Ry
     hartree contribution      =     373.31625050 Ry
     xc contribution           =     -47.46279985 Ry
     ewald contribution        =     270.57626059 Ry
     one-center paw contrib.   =     -37.01105044 Ry
      -> PAW hartree energy AE =       9.32853107 Ry
      -> PAW hartree energy PS =      -9.31976950 Ry
      -> PAW xc energy AE      =     -10.63841054 Ry
      -> PAW xc energy PS      =       4.46136103 Ry
      -> total E_H with PAW    =     373.32501207 Ry
      -> total E_XC with PAW   =     -53.63984935 Ry
     smearing contrib. (-TS)   =       0.00298514 Ry

     convergence has been achieved in   6 iterations

     negative rho (up, down):  1.764E-02 0.000E+00

     Forces acting on atoms (cartesian axes, Ry/au):

     atom    1 type  1   force =    -0.00282436    0.00336435   -0.00035566
     atom    2 type  1   force =     0.00147272    0.00062025   -0.00000016
     atom    3 type  1   force =    -0.00239671   -0.00738543    0.00009317
     atom    4 type  1   force =     0.01156848   -0.01816832    0.00005791
     atom    5 type  1   force =     0.01587160    0.00163760    0.00011998
     atom    6 type  1   force =    -0.01837769    0.01103098   -0.00010818
     atom    7 type  2   force =    -0.00827676    0.00216935    0.00004823
     atom    8 type  3   force =     0.00888521   -0.01883046   -0.00000333
     atom    9 type  2   force =    -0.00443725    0.00195675   -0.00003647
     atom   10 type  2   force =     0.00365680    0.01383659   -0.00002735
     atom   11 type  3   force =    -0.00457677    0.00355961    0.00029046
     atom   12 type  3   force =    -0.00676972   -0.00427226   -0.00003604
     atom   13 type  3   force =     0.00610729   -0.01670083   -0.00001792
     atom   14 type  3   force =     0.00009717    0.02718183   -0.00002463
     The non-local contrib.  to forces
     atom    1 type  1   force =     0.00034304    0.01434337   -0.00018717
     atom    2 type  1   force =    -0.00719560    0.02026758    0.00024377
     atom    3 type  1   force =     0.07370812    0.02920919    0.00002381
     atom    4 type  1   force =     0.14858321   -0.05323617    0.00001363
     atom    5 type  1   force =     0.36065625    0.14493490    0.00010723
     atom    6 type  1   force =     0.11323459   -0.01343570    0.00020747
     atom    7 type  2   force =     0.01267907   -0.08307724    0.00039917
     atom    8 type  3   force =    -0.03635492   -0.09236977   -0.00002772
     atom    9 type  2   force =    -2.42842755    0.20534908   -0.00058420
     atom   10 type  2   force =    -0.56426250    2.13522080   -0.00036267
     atom   11 type  3   force =     0.06888363   -0.03937853    0.00027320
     atom   12 type  3   force =     0.06962857    0.03881593   -0.00000957
     atom   13 type  3   force =     0.00211517    0.08145366   -0.00003085
     atom   14 type  3   force =     0.00175537   -0.08205785    0.00002487
     The ionic contribution  to forces
     atom    1 type  1   force =    -7.76531800    3.60451651    0.00465803
     atom    2 type  1   force =    -7.78619625   -3.59673130    0.00141955
     atom    3 type  1   force =    -2.52945771   -8.12753340   -0.00029312
     atom    4 type  1   force =    -1.37751151   -4.88453961   -0.00309322
     atom    5 type  1   force =    -1.57732674    4.61210010   -0.00195585
     atom    6 type  1   force =    -2.67944152    8.12131885    0.00434734
     atom    7 type  2   force =     6.33784110   10.63622504   -0.00227613
     atom    8 type  3   force =     2.02151168    4.07231353    0.00092335
     atom    9 type  2   force =    16.58302331   -0.27987386    0.00266646
     atom   10 type  2   force =     6.08570885  -14.22062135    0.00130225
     atom   11 type  3   force =    -3.17275396    1.72921964   -0.00852344
     atom   12 type  3   force =    -3.19382075   -1.70033442    0.00038086
     atom   13 type  3   force =    -0.47699307   -3.69438863    0.00101823
     atom   14 type  3   force =    -0.46926543    3.72832890   -0.00057432
     The local contribution  to forces
     atom    1 type  1   force =     7.76075569   -3.61523099   -0.00481741
     atom    2 type  1   force =     7.79342497    3.57693276   -0.00165627
     atom    3 type  1   force =     2.45558153    8.08980202    0.00036208
     atom    4 type  1   force =     1.24259058    4.91704542    0.00313216
     atom    5 type  1   force =     1.23839195   -4.75197700    0.00196625
     atom    6 type  1   force =     2.55025447   -8.09544195   -0.00464915
     atom    7 type  2   force =    -6.35838176  -10.55125456    0.00192809
     atom    8 type  3   force =    -1.97624577   -3.99881517   -0.00089889
     atom    9 type  2   force =   -14.17967570    0.07928422   -0.00212448
     atom   10 type  2   force =    -5.52298130   12.11636867   -0.00097025
     atom   11 type  3   force =     3.09924476   -1.68623443    0.00854043
     atom   12 type  3   force =     3.11741521    1.65719685   -0.00040717
     atom   13 type  3   force =     0.48106014    3.59624903   -0.00100513
     atom   14 type  3   force =     0.46768650   -3.61901797    0.00052488
     The core correction contribution to forces
     atom    1 type  1   force =     0.00149628   -0.00031031   -0.00000943
     atom    2 type  1   force =     0.00168226   -0.00010593   -0.00000663
     atom    3 type  1   force =    -0.00174774    0.00112826    0.00000129
     atom    4 type  1   force =    -0.00176393    0.00269172    0.00000613
     atom    5 type  1   force =    -0.00550314   -0.00382628    0.00000277
     atom    6 type  1   force =    -0.00187171   -0.00153721   -0.00001377
     atom    7 type  2   force =    -0.00055371   -0.00002931   -0.00000285
     atom    8 type  3   force =     0.00000000    0.00000000    0.00000000
     atom    9 type  2   force =     0.02029384   -0.00304115    0.00000525
     atom   10 type  2   force =     0.00502365   -0.01690370    0.00000318
     atom   11 type  3   force =     0.00000000    0.00000000    0.00000000
     atom   12 type  3   force =     0.00000000    0.00000000    0.00000000
     atom   13 type  3   force =     0.00000000    0.00000000    0.00000000
     atom   14 type  3   force =     0.00000000    0.00000000    0.00000000
     The Hubbard contrib.    to forces
     atom    1 type  1   force =     0.00000000    0.00000000    0.00000000
     atom    2 type  1   force =     0.00000000    0.00000000    0.00000000
     atom    3 type  1   force =     0.00000000    0.00000000    0.00000000
     atom    4 type  1   force =     0.00000000    0.00000000    0.00000000
     atom    5 type  1   force =     0.00000000    0.00000000    0.00000000
     atom    6 type  1   force =     0.00000000    0.00000000    0.00000000
     atom    7 type  2   force =     0.00000000    0.00000000    0.00000000
     atom    8 type  3   force =     0.00000000    0.00000000    0.00000000
     atom    9 type  2   force =     0.00000000    0.00000000    0.00000000
     atom   10 type  2   force =     0.00000000    0.00000000    0.00000000
     atom   11 type  3   force =     0.00000000    0.00000000    0.00000000
     atom   12 type  3   force =     0.00000000    0.00000000    0.00000000
     atom   13 type  3   force =     0.00000000    0.00000000    0.00000000
     atom   14 type  3   force =     0.00000000    0.00000000    0.00000000
     The SCF correction term to forces
     atom    1 type  1   force =    -0.00007085    0.00005329    0.00000040
     atom    2 type  1   force =    -0.00021215    0.00026464   -0.00000050
     atom    3 type  1   force =    -0.00045039    0.00001601   -0.00000080
     atom    4 type  1   force =    -0.00029936   -0.00012216   -0.00000071
     atom    5 type  1   force =    -0.00031621    0.00041339   -0.00000033
     atom    6 type  1   force =    -0.00052301    0.00013450    0.00000001
     atom    7 type  2   force =     0.00016906    0.00031293    0.00000003
     atom    8 type  3   force =     0.00000474    0.00004847    0.00000000
     atom    9 type  2   force =     0.00037936    0.00024599    0.00000058
     atom   10 type  2   force =     0.00019861   -0.00022031    0.00000022
     atom   11 type  3   force =     0.00007932   -0.00003955    0.00000034
     atom   12 type  3   force =     0.00003777    0.00005690   -0.00000008
     atom   13 type  3   force =    -0.00004443   -0.00000737   -0.00000009
     atom   14 type  3   force =    -0.00004876   -0.00006374    0.00000002

     Total force =     0.056109     Total SCF correction =     0.001198

     number of scf cycles    =   4
     number of bfgs steps    =   2

     energy   old            =    -176.9039997023 Ry
     energy   new            =    -176.9077894078 Ry

     CASE: energy  _new < energy  _old

     new trust radius        =       0.0610079412 bohr
     new conv_thr            =       0.0000002718 Ry


ATOMIC_POSITIONS (angstrom)
C            -2.1496275855        0.7163280795       -0.0005401096
C            -2.1587732577       -0.6991497265        0.0001193946
C            -0.9740755953       -1.4211832726        0.0001122320
C             0.2361076016       -0.7080669638       -0.0001483905
C             0.2195983973        0.7007011284        0.0000426470
C            -0.9709390959        1.4400024381        0.0001132443
N             1.5386551408        1.0375557157       -0.0000401296
H             1.9364909470        1.9722523194        0.0002029772
N             2.3262875191       -0.0802591223        0.0001249006
N             1.5611730160       -1.1314955785        0.0000707302
H            -3.1012368196        1.2584205471       -0.0030598015
H            -3.1202732530       -1.2292646694        0.0001080359
H            -0.9939894829       -2.5100703306        0.0003451099
H            -0.9695975319        2.5237294353       -0.0001508406



     Writing output data file /benzotriazole/relax.save/
     NEW-OLD atomic charge density approx. for the potential

     negative rho (up, down):  1.744E-02 0.000E+00

     total cpu time spent up to now is     2935.3 secs

     Self-consistent Calculation

     iteration #  1     ecut=    32.00 Ry     beta= 0.70
     Davidson diagonalization with overlap
     ethr =  1.00E-06,  avg # of iterations =  5.0

     negative rho (up, down):  1.741E-02 0.000E+00

     total cpu time spent up to now is     3097.5 secs

     total energy              =    -176.91009104 Ry
     Harris-Foulkes estimate   =    -176.91131652 Ry
     estimated scf accuracy    <       0.00229750 Ry

     iteration #  2     ecut=    32.00 Ry     beta= 0.70
     Davidson diagonalization with overlap
     ethr =  5.22E-06,  avg # of iterations =  2.0

     negative rho (up, down):  1.762E-02 0.000E+00

     total cpu time spent up to now is     3166.6 secs

     total energy              =    -176.91023745 Ry
     Harris-Foulkes estimate   =    -176.91163788 Ry
     estimated scf accuracy    <       0.00281571 Ry

     iteration #  3     ecut=    32.00 Ry     beta= 0.70
     Davidson diagonalization with overlap
     ethr =  5.22E-06,  avg # of iterations =  2.0

     negative rho (up, down):  1.751E-02 0.000E+00

     total cpu time spent up to now is     3238.9 secs

     total energy              =    -176.91087809 Ry
     Harris-Foulkes estimate   =    -176.91098835 Ry
     estimated scf accuracy    <       0.00024503 Ry

     iteration #  4     ecut=    32.00 Ry     beta= 0.70
     Davidson diagonalization with overlap
     ethr =  5.57E-07,  avg # of iterations =  2.0

     negative rho (up, down):  1.748E-02 0.000E+00

     total cpu time spent up to now is     3307.7 secs

     total energy              =    -176.91092911 Ry
     Harris-Foulkes estimate   =    -176.91095044 Ry
     estimated scf accuracy    <       0.00004813 Ry

     iteration #  5     ecut=    32.00 Ry     beta= 0.70
     Davidson diagonalization with overlap
     ethr =  1.09E-07,  avg # of iterations =  2.0

     negative rho (up, down):  1.747E-02 0.000E+00

     total cpu time spent up to now is     3380.4 secs

     total energy              =    -176.91093829 Ry
     Harris-Foulkes estimate   =    -176.91094157 Ry
     estimated scf accuracy    <       0.00000723 Ry

     iteration #  6     ecut=    32.00 Ry     beta= 0.70
     Davidson diagonalization with overlap
     ethr =  1.64E-08,  avg # of iterations =  2.0

     negative rho (up, down):  1.747E-02 0.000E+00

     total cpu time spent up to now is     3450.6 secs

     total energy              =    -176.91093986 Ry
     Harris-Foulkes estimate   =    -176.91094029 Ry
     estimated scf accuracy    <       0.00000095 Ry

     iteration #  7     ecut=    32.00 Ry     beta= 0.70
     Davidson diagonalization with overlap
     ethr =  2.15E-09,  avg # of iterations =  3.0

     negative rho (up, down):  1.747E-02 0.000E+00

     total cpu time spent up to now is     3523.9 secs

     End of self-consistent calculation

          k =-0.5000-0.5000-0.5000 (195744 PWs)   bands (ev):

   -27.4966 -22.7189 -21.6645 -19.3446 -18.8276 -16.2448 -15.9414 -15.4669
   -13.7682 -12.9476 -11.6481 -11.5636 -11.1545 -10.9561  -9.2191  -8.9779
    -8.9494  -8.0309  -7.9217  -6.4337  -6.3372  -6.0793  -2.2263  -0.9567
    -0.7420  -0.5469  -0.4152  -0.1529  -0.0836  -0.0106  -0.0016   0.0182
     0.0368   0.1282   0.2359   0.3171

     occupation numbers 
     1.0000   1.0000   1.0000   1.0000   1.0000   1.0000   1.0000   1.0000
     1.0000   1.0000   1.0000   1.0000   1.0000   1.0000   1.0000   1.0000
     1.0000   1.0000   1.0000   1.0000   1.0000   1.0000   0.0005  -0.0004
    -0.0001  -0.0000  -0.0000  -0.0000  -0.0000  -0.0000  -0.0000  -0.0000
    -0.0000  -0.0000  -0.0000  -0.0000

     the Fermi energy is    -2.7973 ev

!    total energy              =    -176.91094004 Ry
     Harris-Foulkes estimate   =    -176.91094013 Ry
     estimated scf accuracy    <       0.00000010 Ry

     The total energy is the sum of the following terms:

     one-electron contribution =    -733.97322864 Ry
     hartree contribution      =     372.11728850 Ry
     xc contribution           =     -47.39717188 Ry
     ewald contribution        =     269.34704123 Ry
     one-center paw contrib.   =     -37.00788336 Ry
      -> PAW hartree energy AE =       9.22445922 Ry
      -> PAW hartree energy PS =      -9.21575584 Ry
      -> PAW xc energy AE      =     -10.61303681 Ry
      -> PAW xc energy PS      =       4.43641496 Ry
      -> total E_H with PAW    =     372.12599189 Ry
      -> total E_XC with PAW   =     -53.57379373 Ry
     smearing contrib. (-TS)   =       0.00301410 Ry

     convergence has been achieved in   7 iterations

     negative rho (up, down):  1.747E-02 0.000E+00

     Forces acting on atoms (cartesian axes, Ry/au):

     atom    1 type  1   force =    -0.01209733   -0.00100670   -0.00009763
     atom    2 type  1   force =    -0.00185703    0.00124051   -0.00011727
     atom    3 type  1   force =    -0.00291557   -0.00605462    0.00005299
     atom    4 type  1   force =     0.00507486   -0.00492078    0.00010191
     atom    5 type  1   force =    -0.00347974    0.00400485    0.00002832
     atom    6 type  1   force =     0.00684795   -0.00412958   -0.00013450
     atom    7 type  2   force =    -0.00633667   -0.00478964    0.00006670
     atom    8 type  3   force =     0.00978163   -0.00281444    0.00000032
     atom    9 type  2   force =     0.00098752    0.00077593   -0.00003162
     atom   10 type  2   force =    -0.00857769    0.00938762   -0.00003488
     atom   11 type  3   force =     0.00221169   -0.00279186    0.00020505
     atom   12 type  3   force =     0.00713071    0.00381933   -0.00001917
     atom   13 type  3   force =     0.00437602   -0.00386012    0.00000365
     atom   14 type  3   force =    -0.00114634    0.01113952   -0.00002388
     The non-local contrib.  to forces
     atom    1 type  1   force =    -0.00906945    0.00421404    0.00006275
     atom    2 type  1   force =    -0.01068917    0.02689248    0.00001229
     atom    3 type  1   force =     0.07404355    0.02982421    0.00002670
     atom    4 type  1   force =     0.13854598   -0.03648218    0.00011446
     atom    5 type  1   force =     0.34538457    0.15024378    0.00000930
     atom    6 type  1   force =     0.14309370   -0.02670753    0.00007259
     atom    7 type  2   force =     0.02968404   -0.09472465    0.00051162
     atom    8 type  3   force =    -0.04013133   -0.09425399   -0.00002366
     atom    9 type  2   force =    -2.42489885    0.17864177   -0.00038676
     atom   10 type  2   force =    -0.59644603    2.13331355   -0.00027018
     atom   11 type  3   force =     0.06758214   -0.03854388    0.00019585
     atom   12 type  3   force =     0.06749471    0.03739564   -0.00000146
     atom   13 type  3   force =     0.00151808    0.07949348   -0.00001682
     atom   14 type  3   force =     0.00072886   -0.07988674    0.00001711
     The ionic contribution  to forces
     atom    1 type  1   force =    -7.72505367    3.47265368   -0.00152418
     atom    2 type  1   force =    -7.72380134   -3.53981516    0.00302349
     atom    3 type  1   force =    -2.52679544   -8.09168700    0.00110288
     atom    4 type  1   force =    -1.41102627   -4.89247761   -0.00297592
     atom    5 type  1   force =    -1.80063560    4.54260502    0.00112189
     atom    6 type  1   force =    -2.57125785    8.10942698    0.00387657
     atom    7 type  2   force =     6.14442267   10.64091937   -0.00193494
     atom    8 type  3   force =     2.09774904    4.10498004    0.00079870
     atom    9 type  2   force =    16.59723830   -0.19115624    0.00173081
     atom   10 type  2   force =     6.10854625  -14.21189741    0.00081067
     atom   11 type  3   force =    -3.14454465    1.69798812   -0.00661916
     atom   12 type  3   force =    -3.14156741   -1.66443511    0.00024809
     atom   13 type  3   force =    -0.46192876   -3.64299924    0.00071984
     atom   14 type  3   force =    -0.44134526    3.66589456   -0.00037875
     The local contribution  to forces
     atom    1 type  1   force =     7.72038087   -3.47812025    0.00135851
     atom    2 type  1   force =     7.73090802    3.51469815   -0.00314705
     atom    3 type  1   force =     2.45131859    8.05464825   -0.00107247
     atom    4 type  1   force =     1.27918895    4.92200607    0.00296009
     atom    5 type  1   force =     1.45647737   -4.68475083   -0.00110062
     atom    6 type  1   force =     2.43781697   -8.08554418   -0.00407518
     atom    7 type  2   force =    -6.17987603  -10.55089504    0.00149457
     atom    8 type  3   force =    -2.04785495   -4.01358110   -0.00077428
     atom    9 type  2   force =   -14.19165248    0.01638940   -0.00137886
     atom   10 type  2   force =    -5.52588155   12.10488352   -0.00057722
     atom   11 type  3   force =     3.07921179   -1.66223004    0.00662884
     atom   12 type  3   force =     3.08123089    1.63089556   -0.00026534
     atom   13 type  3   force =     0.46477723    3.55965748   -0.00069885
     atom   14 type  3   force =     0.43948405   -3.57487435    0.00033817
     The core correction contribution to forces
     atom    1 type  1   force =     0.00171768    0.00024503    0.00000549
     atom    2 type  1   force =     0.00173466   -0.00040171   -0.00000547
     atom    3 type  1   force =    -0.00169734    0.00123216   -0.00000335
     atom    4 type  1   force =    -0.00166281    0.00222647    0.00000418
     atom    5 type  1   force =    -0.00460935   -0.00384045   -0.00000161
     atom    6 type  1   force =    -0.00281987   -0.00132579   -0.00000830
     atom    7 type  2   force =    -0.00062730    0.00007978   -0.00000396
     atom    8 type  3   force =     0.00000000    0.00000000    0.00000000
     atom    9 type  2   force =     0.02018882   -0.00276757    0.00000344
     atom   10 type  2   force =     0.00535509   -0.01686081    0.00000239
     atom   11 type  3   force =     0.00000000    0.00000000    0.00000000
     atom   12 type  3   force =     0.00000000    0.00000000    0.00000000
     atom   13 type  3   force =     0.00000000    0.00000000    0.00000000
     atom   14 type  3   force =     0.00000000    0.00000000    0.00000000
     The Hubbard contrib.    to forces
     atom    1 type  1   force =     0.00000000    0.00000000    0.00000000
     atom    2 type  1   force =     0.00000000    0.00000000    0.00000000
     atom    3 type  1   force =     0.00000000    0.00000000    0.00000000
     atom    4 type  1   force =     0.00000000    0.00000000    0.00000000
     atom    5 type  1   force =     0.00000000    0.00000000    0.00000000
     atom    6 type  1   force =     0.00000000    0.00000000    0.00000000
     atom    7 type  2   force =     0.00000000    0.00000000    0.00000000
     atom    8 type  3   force =     0.00000000    0.00000000    0.00000000
     atom    9 type  2   force =     0.00000000    0.00000000    0.00000000
     atom   10 type  2   force =     0.00000000    0.00000000    0.00000000
     atom   11 type  3   force =     0.00000000    0.00000000    0.00000000
     atom   12 type  3   force =     0.00000000    0.00000000    0.00000000
     atom   13 type  3   force =     0.00000000    0.00000000    0.00000000
     atom   14 type  3   force =     0.00000000    0.00000000    0.00000000
     The SCF correction term to forces
     atom    1 type  1   force =    -0.00006083    0.00001805    0.00000027
     atom    2 type  1   force =     0.00000273   -0.00011600   -0.00000008
     atom    3 type  1   force =     0.00022700   -0.00005498   -0.00000030
     atom    4 type  1   force =     0.00004095   -0.00017628   -0.00000044
     atom    5 type  1   force =    -0.00008480   -0.00023543   -0.00000018
     atom    6 type  1   force =     0.00002693    0.00003819    0.00000027
     atom    7 type  2   force =     0.00007189   -0.00015186   -0.00000013
     atom    8 type  3   force =     0.00003079    0.00005786    0.00000001
     atom    9 type  2   force =     0.00012365   -0.00031419    0.00000021
     atom   10 type  2   force =    -0.00013954   -0.00003398   -0.00000008
     atom   11 type  3   force =    -0.00002567    0.00001119   -0.00000002
     atom   12 type  3   force =    -0.00001555   -0.00001952   -0.00000000
     atom   13 type  3   force =     0.00002140    0.00000540   -0.00000006
     atom   14 type  3   force =    -0.00000207    0.00002331    0.00000006

     Total force =     0.030120     Total SCF correction =     0.000582

     number of scf cycles    =   5
     number of bfgs steps    =   3

     energy   old            =    -176.9077894078 Ry
     energy   new            =    -176.9109400443 Ry

     CASE: energy  _new < energy  _old

     new trust radius        =       0.0307894579 bohr
     new conv_thr            =       0.0000001210 Ry


ATOMIC_POSITIONS (angstrom)
C            -2.1573100450        0.7179376700       -0.0007541737
C            -2.1599102868       -0.7003830258        0.0000622949
C            -0.9751621796       -1.4290959499        0.0001808827
C             0.2407695180       -0.7128493097       -0.0000733115
C             0.2135747427        0.7029147430        0.0001153180
C            -0.9688696922        1.4444984746       -0.0000039468
N             1.5349482961        1.0352977998        0.0000148983
H             1.9460752318        1.9638943315        0.0002020376
N             2.3274144459       -0.0766332658        0.0000920577
N             1.5609503316       -1.1265423520        0.0000429146
H            -3.1030841331        1.2590287908       -0.0028241358
[...]
     atom    9 type  2   force =     0.00000000    0.00000000    0.00000000
     atom   10 type  2   force =     0.00000000    0.00000000    0.00000000
     atom   11 type  3   force =     0.00000000    0.00000000    0.00000000
     atom   12 type  3   force =     0.00000000    0.00000000    0.00000000
     atom   13 type  3   force =     0.00000000    0.00000000    0.00000000
     atom   14 type  3   force =     0.00000000    0.00000000    0.00000000
     The SCF correction term to forces
     atom    1 type  1   force =     0.00002300    0.00004125   -0.00000052
     atom    2 type  1   force =     0.00002120   -0.00000177   -0.00000023
     atom    3 type  1   force =     0.00004435   -0.00001518    0.00000009
     atom    4 type  1   force =    -0.00000153    0.00001226    0.00000007
     atom    5 type  1   force =     0.00001373    0.00002307    0.00000006
     atom    6 type  1   force =     0.00003307    0.00001278   -0.00000026
     atom    7 type  2   force =     0.00002508   -0.00001714   -0.00000038
     atom    8 type  3   force =    -0.00000048   -0.00000555   -0.00000002
     atom    9 type  2   force =     0.00003160    0.00005276   -0.00000105
     atom   10 type  2   force =     0.00002312    0.00004266   -0.00000083
     atom   11 type  3   force =    -0.00000107    0.00000575   -0.00000008
     atom   12 type  3   force =    -0.00000983   -0.00000641   -0.00000002
     atom   13 type  3   force =     0.00000406   -0.00000023    0.00000002
     atom   14 type  3   force =     0.00000455   -0.00000281   -0.00000003

     Total force =     0.002927     Total SCF correction =     0.000120

     number of scf cycles    =  14
     number of bfgs steps    =  12

     energy   old            =    -176.9121435588 Ry
     energy   new            =    -176.9121532549 Ry

     CASE: energy  _new < energy  _old

     new trust radius        =       0.0017207285 bohr
     new conv_thr            =       0.0000000100 Ry


ATOMIC_POSITIONS (angstrom)
C            -2.1565295961        0.7159462504       -0.0008108729
C            -2.1563560733       -0.6996395309       -0.0003799707
C            -0.9741075490       -1.4254113125        0.0001009621
C             0.2267696934       -0.6992197974        0.0001364536
C             0.2132991811        0.7153535367        0.0000735274
C            -0.9788351536        1.4536212994       -0.0004367730
N             1.5393279309        1.0347569121        0.0001907581
H             1.9890265603        1.9462881721        0.0001297983
N             2.3159989891       -0.0874455119        0.0001403764
N             1.5403886361       -1.1281624471        0.0001385371
H            -3.1144004704        1.2404116893       -0.0014420031
H            -3.1135424762       -1.2255694640       -0.0003941478
H            -0.9645080804       -2.5167702428        0.0004775283
H            -0.9867315919        2.5453404467       -0.0006241739



     Writing output data file /benzotriazole/relax.save/
     NEW-OLD atomic charge density approx. for the potential

     negative rho (up, down):  1.749E-02 0.000E+00

     total cpu time spent up to now is     7949.3 secs

     Self-consistent Calculation

     iteration #  1     ecut=    32.00 Ry     beta= 0.70
     Davidson diagonalization with overlap
     ethr =  1.00E-06,  avg # of iterations =  2.0

     Threshold (ethr) on eigenvalues was too large:
     Diagonalizing with lowered threshold

     Davidson diagonalization with overlap
     ethr =  1.63E-09,  avg # of iterations =  3.0

     negative rho (up, down):  1.749E-02 0.000E+00

     total cpu time spent up to now is     8090.8 secs

     total energy              =    -176.91215738 Ry
     Harris-Foulkes estimate   =    -176.91216685 Ry
     estimated scf accuracy    <       0.00000077 Ry

     iteration #  2     ecut=    32.00 Ry     beta= 0.70
     Davidson diagonalization with overlap
     ethr =  1.75E-09,  avg # of iterations =  2.0

     negative rho (up, down):  1.749E-02 0.000E+00

     total cpu time spent up to now is     8162.8 secs

     total energy              =    -176.91215740 Ry
     Harris-Foulkes estimate   =    -176.91215760 Ry
     estimated scf accuracy    <       0.00000034 Ry

     iteration #  3     ecut=    32.00 Ry     beta= 0.70
     Davidson diagonalization with overlap
     ethr =  7.74E-10,  avg # of iterations =  2.0

     negative rho (up, down):  1.749E-02 0.000E+00

     total cpu time spent up to now is     8232.3 secs

     total energy              =    -176.91215748 Ry
     Harris-Foulkes estimate   =    -176.91215756 Ry
     estimated scf accuracy    <       0.00000016 Ry

     iteration #  4     ecut=    32.00 Ry     beta= 0.70
     Davidson diagonalization with overlap
     ethr =  3.72E-10,  avg # of iterations =  2.0

     negative rho (up, down):  1.749E-02 0.000E+00

     total cpu time spent up to now is     8297.7 secs

     total energy              =    -176.91215752 Ry
     Harris-Foulkes estimate   =    -176.91215752 Ry
     estimated scf accuracy    <       0.00000002 Ry

     iteration #  5     ecut=    32.00 Ry     beta= 0.70
     Davidson diagonalization with overlap
     ethr =  4.71E-11,  avg # of iterations =  2.0

     negative rho (up, down):  1.749E-02 0.000E+00

     total cpu time spent up to now is     8364.1 secs

     End of self-consistent calculation

          k =-0.5000-0.5000-0.5000 (195744 PWs)   bands (ev):

   -27.5322 -22.7092 -21.6571 -19.3485 -18.8321 -16.2188 -15.9709 -15.4319
   -13.7439 -12.9646 -11.6563 -11.5569 -11.1403 -10.9589  -9.2129  -8.9651
    -8.9644  -8.0418  -7.9203  -6.4138  -6.3090  -6.0782  -2.2269  -0.9631
    -0.7257  -0.5131  -0.4157  -0.1546  -0.0820  -0.0105  -0.0018   0.0176
     0.0365   0.1295   0.2353   0.3188

     occupation numbers 
     1.0000   1.0000   1.0000   1.0000   1.0000   1.0000   1.0000   1.0000
     1.0000   1.0000   1.0000   1.0000   1.0000   1.0000   1.0000   1.0000
     1.0000   1.0000   1.0000   1.0000   1.0000   1.0000   0.0005  -0.0005
    -0.0001  -0.0000  -0.0000  -0.0000  -0.0000  -0.0000  -0.0000  -0.0000
    -0.0000  -0.0000  -0.0000  -0.0000

     the Fermi energy is    -2.7979 ev

!    total energy              =    -176.91215752 Ry
     Harris-Foulkes estimate   =    -176.91215752 Ry
     estimated scf accuracy    <          1.2E-09 Ry

     The total energy is the sum of the following terms:

     one-electron contribution =    -734.09200247 Ry
     hartree contribution      =     372.18012584 Ry
     xc contribution           =     -47.39632031 Ry
     ewald contribution        =     269.40042223 Ry
     one-center paw contrib.   =     -37.00739704 Ry
      -> PAW hartree energy AE =       9.19325535 Ry
      -> PAW hartree energy PS =      -9.18456971 Ry
      -> PAW xc energy AE      =     -10.60538346 Ry
      -> PAW xc energy PS      =       4.42889622 Ry
      -> total E_H with PAW    =     372.18881148 Ry
      -> total E_XC with PAW   =     -53.57280755 Ry
     smearing contrib. (-TS)   =       0.00301423 Ry

     convergence has been achieved in   5 iterations

     negative rho (up, down):  1.749E-02 0.000E+00

     Forces acting on atoms (cartesian axes, Ry/au):

     atom    1 type  1   force =     0.00005394   -0.00008295    0.00003335
     atom    2 type  1   force =    -0.00021467    0.00039857    0.00000627
     atom    3 type  1   force =    -0.00009338   -0.00030025   -0.00000080
     atom    4 type  1   force =     0.00075564    0.00023925   -0.00000680
     atom    5 type  1   force =    -0.00070292    0.00004888   -0.00002583
     atom    6 type  1   force =     0.00039151   -0.00079768    0.00000158
     atom    7 type  2   force =     0.00014435    0.00010383   -0.00001483
     atom    8 type  3   force =     0.00041620   -0.00007829   -0.00000498
     atom    9 type  2   force =    -0.00006211   -0.00010006    0.00001657
     atom   10 type  2   force =     0.00007740    0.00007196    0.00001487
     atom   11 type  3   force =    -0.00015540    0.00079774    0.00001309
     atom   12 type  3   force =     0.00007763   -0.00005460   -0.00001257
     atom   13 type  3   force =     0.00001813   -0.00017821   -0.00001396
     atom   14 type  3   force =    -0.00070632   -0.00006819   -0.00000597
     The non-local contrib.  to forces
     atom    1 type  1   force =     0.00449121    0.00445413    0.00003505
     atom    2 type  1   force =    -0.00553225    0.02606528   -0.00000600
     atom    3 type  1   force =     0.07287608    0.03352709    0.00000315
     atom    4 type  1   force =     0.13620642   -0.02362035    0.00003571
     atom    5 type  1   force =     0.35665813    0.14431769    0.00005122
     atom    6 type  1   force =     0.13680717   -0.02540332    0.00009022
     atom    7 type  2   force =     0.04179803   -0.09962619   -0.00018248
     atom    8 type  3   force =    -0.04606883   -0.09139645    0.00000535
     atom    9 type  2   force =    -2.41866929    0.18790073    0.00011801
     atom   10 type  2   force =    -0.56195842    2.12649528    0.00004837
     atom   11 type  3   force =     0.06891018   -0.03762181    0.00004689
     atom   12 type  3   force =     0.06859402    0.03791894    0.00000010
     atom   13 type  3   force =    -0.00103149    0.07904452   -0.00002827
     atom   14 type  3   force =     0.00136791   -0.07819847    0.00001333
     The ionic contribution  to forces
     atom    1 type  1   force =    -7.66702732    3.47515578   -0.00376375
     atom    2 type  1   force =    -7.67254515   -3.53600312   -0.00093790
     atom    3 type  1   force =    -2.57492474   -8.13918000    0.00178339
     atom    4 type  1   force =    -1.52477099   -4.71009958    0.00137379
     atom    5 type  1   force =    -1.78446171    4.65777293    0.00180023
     atom    6 type  1   force =    -2.59972195    8.14766465   -0.00120024
     atom    7 type  2   force =     6.06115017   10.69048037    0.00197097
     atom    8 type  3   force =     2.24562608    4.03032225   -0.00005223
     atom    9 type  2   force =    16.64556322   -0.33323503    0.00016667
     atom   10 type  2   force =     6.07254259  -14.25613059    0.00043289
     atom   11 type  3   force =    -3.17184877    1.66812510   -0.00196284
     atom   12 type  3   force =    -3.16380062   -1.67913626   -0.00011542
     atom   13 type  3   force =    -0.41121407   -3.63918709    0.00114478
     atom   14 type  3   force =    -0.45456674    3.62345058   -0.00064034
     The local contribution  to forces
     atom    1 type  1   force =     7.66138538   -3.47976092    0.00374604
     atom    2 type  1   force =     7.67636471    3.51083396    0.00094373
     atom    3 type  1   force =     2.50351440    8.10403887   -0.00178278
     atom    4 type  1   force =     1.39057709    4.73228411   -0.00141126
     atom    5 type  1   force =     1.43202919   -4.79834399   -0.00187172
     atom    6 type  1   force =     2.46596225   -8.12177020    0.00110869
     atom    7 type  2   force =    -6.10218886  -10.59079360   -0.00180281
     atom    8 type  3   force =    -2.19912315   -3.93896660    0.00004369
     atom    9 type  2   force =   -14.24700095    0.14809866   -0.00026455
     atom   10 type  2   force =    -5.51545115   12.14651367   -0.00046361
     atom   11 type  3   force =     3.10280078   -1.62965929    0.00193088
     atom   12 type  3   force =     3.09529884    1.64120259    0.00010458
     atom   13 type  3   force =     0.41228509    3.56000310   -0.00112869
     atom   14 type  3   force =     0.45251497   -3.54527684    0.00062285
     The core correction contribution to forces
     atom    1 type  1   force =     0.00122250    0.00013193    0.00001820
     atom    2 type  1   force =     0.00151278   -0.00045679    0.00000850
     atom    3 type  1   force =    -0.00152149    0.00135023   -0.00000277
     atom    4 type  1   force =    -0.00121435    0.00173969   -0.00000328
     atom    5 type  1   force =    -0.00487613   -0.00364784   -0.00000381
     atom    6 type  1   force =    -0.00261249   -0.00123080    0.00000486
     atom    7 type  2   force =    -0.00059493    0.00007354    0.00000136
     atom    8 type  3   force =     0.00000000    0.00000000    0.00000000
     atom    9 type  2   force =     0.02005598   -0.00279595   -0.00000115
     atom   10 type  2   force =     0.00497668   -0.01672604   -0.00000050
     atom   11 type  3   force =     0.00000000    0.00000000    0.00000000
     atom   12 type  3   force =     0.00000000    0.00000000    0.00000000
     atom   13 type  3   force =     0.00000000    0.00000000    0.00000000
     atom   14 type  3   force =     0.00000000    0.00000000    0.00000000
     The Hubbard contrib.    to forces
     atom    1 type  1   force =     0.00000000    0.00000000    0.00000000
     atom    2 type  1   force =     0.00000000    0.00000000    0.00000000
     atom    3 type  1   force =     0.00000000    0.00000000    0.00000000
     atom    4 type  1   force =     0.00000000    0.00000000    0.00000000
     atom    5 type  1   force =     0.00000000    0.00000000    0.00000000
     atom    6 type  1   force =     0.00000000    0.00000000    0.00000000
     atom    7 type  2   force =     0.00000000    0.00000000    0.00000000
     atom    8 type  3   force =     0.00000000    0.00000000    0.00000000
     atom    9 type  2   force =     0.00000000    0.00000000    0.00000000
     atom   10 type  2   force =     0.00000000    0.00000000    0.00000000
     atom   11 type  3   force =     0.00000000    0.00000000    0.00000000
     atom   12 type  3   force =     0.00000000    0.00000000    0.00000000
     atom   13 type  3   force =     0.00000000    0.00000000    0.00000000
     atom   14 type  3   force =     0.00000000    0.00000000    0.00000000
     The SCF correction term to forces
     atom    1 type  1   force =     0.00000222   -0.00002155   -0.00000039
     atom    2 type  1   force =     0.00000528    0.00000157   -0.00000027
     atom    3 type  1   force =    -0.00001757    0.00000588   -0.00000001
     atom    4 type  1   force =    -0.00002249   -0.00002229    0.00000002
     atom    5 type  1   force =    -0.00003236   -0.00000759    0.00000004
     atom    6 type  1   force =    -0.00002342   -0.00001567   -0.00000017
     atom    7 type  2   force =    -0.00000001    0.00001204   -0.00000010
     atom    8 type  3   force =     0.00000216    0.00000484   -0.00000001
     atom    9 type  2   force =     0.00000898   -0.00002615   -0.00000064
     atom   10 type  2   force =    -0.00001224   -0.00003804   -0.00000050
     atom   11 type  3   force =     0.00000245   -0.00000392   -0.00000006
     atom   12 type  3   force =     0.00000544    0.00000246   -0.00000004
     atom   13 type  3   force =    -0.00000137    0.00000359    0.00000001
     atom   14 type  3   force =    -0.00000241   -0.00000113   -0.00000004

     Total force =     0.001916     Total SCF correction =     0.000080

     bfgs converged in  15 scf cycles and  13 bfgs steps
     (criteria: energy <  1.0E-04 Ry, force <  1.0E-03 Ry/Bohr)

     End of BFGS Geometry Optimization

     Final energy   =    -176.9121575188 Ry
Begin final coordinates

ATOMIC_POSITIONS (angstrom)
C            -2.1565295961        0.7159462504       -0.0008108729
C            -2.1563560733       -0.6996395309       -0.0003799707
C            -0.9741075490       -1.4254113125        0.0001009621
C             0.2267696934       -0.6992197974        0.0001364536
C             0.2132991811        0.7153535367        0.0000735274
C            -0.9788351536        1.4536212994       -0.0004367730
N             1.5393279309        1.0347569121        0.0001907581
H             1.9890265603        1.9462881721        0.0001297983
N             2.3159989891       -0.0874455119        0.0001403764
N             1.5403886361       -1.1281624471        0.0001385371
H            -3.1144004704        1.2404116893       -0.0014420031
H            -3.1135424762       -1.2255694640       -0.0003941478
H            -0.9645080804       -2.5167702428        0.0004775283
H            -0.9867315919        2.5453404467       -0.0006241739
End final coordinates



     Writing output data file /benzotriazole/relax.save/

     init_run     :     28.72s CPU     42.00s WALL (       1 calls)
     electrons    :   5629.91s CPU   8245.69s WALL (      15 calls)
     update_pot   :     21.47s CPU     21.84s WALL (      14 calls)
     forces       :     41.42s CPU     43.70s WALL (      15 calls)

     Called by init_run:
     wfcinit      :     22.17s CPU     33.58s WALL (       1 calls)
     wfcinit:atom :      0.00s CPU      0.00s WALL (       1 calls)
     wfcinit:wfcr :     22.17s CPU     33.51s WALL (       1 calls)
     potinit      :      1.94s CPU      3.38s WALL (       1 calls)
     hinit0       :      1.78s CPU      1.80s WALL (       1 calls)

     Called by electrons:
     c_bands      :   5337.08s CPU   7880.47s WALL (     106 calls)
     sum_band     :    158.27s CPU    222.33s WALL (     106 calls)
     v_of_rho     :     39.22s CPU     43.52s WALL (     116 calls)
     v_h          :      5.13s CPU      5.76s WALL (     116 calls)
     v_xc         :     37.92s CPU     41.72s WALL (     131 calls)
     newd         :     14.63s CPU     15.65s WALL (     116 calls)
     PAW_pot      :      4.20s CPU      4.42s WALL (     130 calls)
     mix_rho      :     76.86s CPU     77.60s WALL (     106 calls)

     Called by c_bands:
     init_us_2    :      0.30s CPU      0.79s WALL (     227 calls)
     cegterg      :   5320.55s CPU   7857.48s WALL (     106 calls)

     Called by sum_band:
     sum_band:bec :      0.01s CPU      0.02s WALL (     120 calls)
     addusdens    :     62.67s CPU    114.67s WALL (     106 calls)

     Called by *egterg:
     h_psi        :    344.40s CPU    442.75s WALL (     422 calls)
     s_psi        :     74.51s CPU     88.46s WALL (     422 calls)
     g_psi        :      0.25s CPU      0.61s WALL (     315 calls)
     cdiaghg      :    400.13s CPU    410.93s WALL (     402 calls)
     cegterg:over :    180.09s CPU    189.12s WALL (     315 calls)
     cegterg:upda :   2793.01s CPU   4362.00s WALL (     315 calls)
     cegterg:last :   1404.70s CPU   2224.03s WALL (     111 calls)
     cdiaghg:chol :      3.03s CPU      3.10s WALL (     402 calls)
     cdiaghg:inve :      1.05s CPU      1.06s WALL (     402 calls)
     cdiaghg:para :      4.69s CPU      4.75s WALL (     804 calls)

     Called by h_psi:
     h_psi:calbec :    149.16s CPU    150.92s WALL (     422 calls)
     vloc_psi     :    136.22s CPU    155.52s WALL (     422 calls)
     add_vuspsi   :     56.74s CPU    134.60s WALL (     422 calls)

     General routines
     calbec       :    209.80s CPU    211.44s WALL (     602 calls)
     fft          :     72.66s CPU     82.97s WALL (    1662 calls)
     ffts         :      2.43s CPU      2.50s WALL (     222 calls)
     fftw         :    166.88s CPU    190.41s WALL (   23730 calls)
     interpolate  :      3.56s CPU      3.66s WALL (     116 calls)

     Parallel routines
     fft_scatt_xy :      2.78s CPU      4.05s WALL (   25614 calls)
     fft_scatt_yz :    223.50s CPU    250.85s WALL (   25614 calls)

     PAW routines
     PAW_pot      :      4.20s CPU      4.42s WALL (     130 calls)

     PWSCF        :      1h35m CPU      2h19m WALL


   This run was terminated on:  23:10: 0  12Sep2024            

=------------------------------------------------------------------------------=
   JOB DONE.
=------------------------------------------------------------------------------=

===================================================================================
=   BAD TERMINATION OF ONE OF YOUR APPLICATION PROCESSES
=   PID 1048 RUNNING AT b10-04
=   EXIT CODE: 6
=   CLEANING UP REMAINING PROCESSES
=   YOU CAN IGNORE THE BELOW CLEANUP MESSAGES
===================================================================================
