H
     Program PWSCF v.7.3 starts on 29Oct2024 at 17: 0:16 

     This program is part of the open-source Quantum ESPRESSO suite
     for quantum simulation of materials; please cite
         "P. Giannozzi et al., J. Phys.:Condens. Matter 21 395502 (2009);
         "P. Giannozzi et al., J. Phys.:Condens. Matter 29 465901 (2017);
         "P. Giannozzi et al., J. Chem. Phys. 152 154105 (2020);
          URL http://www.quantum-espresso.org", 
     in publications or presentations arising from this work. More details at
     http://www.quantum-espresso.org/quote

     Parallel version (MPI), running on    64 processors

     MPI processes distributed on     1 nodes
     217843 MiB available memory on the printing compute node when the environment starts
 
     Reading input from MgAl2Cu_C6H5N3_nscf_gamma.in
Warning: card &IONS ignored
Warning: card / ignored

     Current dimensions of program PWSCF are:
     Max number of different atomic species (ntypx) = 10
     Max number of k-points (npk) =  40000
     Max angular momentum in pseudopotentials (lmaxx) =  4

     Atomic positions and unit cell read from directory:
     /MgAl2Cu_2x1_C6H5N3_final/embedding/pwscf.save/
 

     gamma-point specific algorithms are used
 
     R & G space division:  proc/nbgrp/npool/nimage =      64
     Subspace diagonalization in iterative solution of the eigenvalue problem:
     one sub-group per band group will be used
     custom distributed-memory algorithm (size of sub-group:  4*  4 procs)

 
     Parallelization info
     --------------------
     sticks:   dense  smooth     PW     G-vecs:    dense   smooth      PW
     Min         116     116     27                33744    33744    4188
     Max         118     118     30                33822    33822    4254
     Sum        7523    7523   1885              2162177  2162177  270331
 
     Using Slab Decomposition
 

     Title: 
     MgAl2Cu_C6H5N3_nscf_gamma                                                  


     bravais-lattice index     =            8
     lattice parameter (alat)  =      15.0542  a.u.
     unit-cell volume          =   18741.9088 (a.u.)^3
     number of atoms/cell      =           60
     number of atomic types    =            6
     number of electrons       =       496.00
     number of Kohn-Sham states=          350
     kinetic-energy cutoff     =      90.0000  Ry
     charge density cutoff     =     360.0000  Ry
     Exchange-correlation= PBE
                           (   1   4   3   4   0   0   0)

     celldm(1)=  15.054220  celldm(2)=   1.156500  celldm(3)=   4.750000
     celldm(4)=   0.000000  celldm(5)=   0.000000  celldm(6)=   0.000000

     crystal axes: (cart. coord. in units of alat)
               a(1) = (   1.000000   0.000000   0.000000 )  
               a(2) = (   0.000000   1.156500   0.000000 )  
               a(3) = (   0.000000   0.000000   4.750000 )  

     reciprocal axes: (cart. coord. in units 2 pi/alat)
               b(1) = (  1.000000  0.000000  0.000000 )  
               b(2) = (  0.000000  0.864678  0.000000 )  
               b(3) = (  0.000000  0.000000  0.210526 )  


     PseudoPot. # 1 for Al read from file:
     /pseudo/Al_ONCV_PBE-1.2.upf
     MD5 check sum: 61098d588df6d88baccfd5e59f8f1e90
     Pseudo is Norm-conserving, Zval = 11.0
     Generated using ONCVPSP code by D. R. Hamann
     Using radial grid of  602 points,  4 beta functions with: 
                l(1) =   0
                l(2) =   0
                l(3) =   1
                l(4) =   1

     PseudoPot. # 2 for Cu read from file:
     /pseudo/Cu_ONCV_PBE-1.2.upf
     MD5 check sum: f84f70c1185866715e9ac7703a54f45e
     Pseudo is Norm-conserving, Zval = 19.0
     Generated using ONCVPSP code by D. R. Hamann
     Using radial grid of  602 points,  6 beta functions with: 
                l(1) =   0
                l(2) =   0
                l(3) =   1
                l(4) =   1
                l(5) =   2
                l(6) =   2

     PseudoPot. # 3 for Mg read from file:
     /pseudo/Mg_ONCV_PBE-1.2.upf
     MD5 check sum: 37abd7b36ba9e3bb126701d58b28bff3
     Pseudo is Norm-conserving, Zval = 10.0
     Generated using ONCVPSP code by D. R. Hamann
     Using radial grid of  602 points,  4 beta functions with: 
                l(1) =   0
                l(2) =   0
                l(3) =   1
                l(4) =   1

     PseudoPot. # 4 for C  read from file:
     /pseudo/C_ONCV_PBE-1.2.upf
     MD5 check sum: 3d2597e5eef38528f7293c089e88409c
     Pseudo is Norm-conserving, Zval =  4.0
     Generated using ONCVPSP code by D. R. Hamann
     Using radial grid of  602 points,  4 beta functions with: 
                l(1) =   0
                l(2) =   0
                l(3) =   1
                l(4) =   1

     PseudoPot. # 5 for N  read from file:
     /pseudo/N_ONCV_PBE-1.2.upf
     MD5 check sum: 505747f69e3b1670e9a20de136ca1593
     Pseudo is Norm-conserving, Zval =  5.0
     Generated using ONCVPSP code by D. R. Hamann
     Using radial grid of  602 points,  4 beta functions with: 
                l(1) =   0
                l(2) =   0
                l(3) =   1
                l(4) =   1

     PseudoPot. # 6 for H  read from file:
     /pseudo/H_ONCV_PBE-1.2.upf
     MD5 check sum: ae0d01b4bdfb70e4e0e3a1de63306ab0
     Pseudo is Norm-conserving, Zval =  1.0
     Generated using ONCVPSP code by D. R. Hamann
     Using radial grid of  602 points,  2 beta functions with: 
                l(1) =   0
                l(2) =   0

     atomic species   valence    mass     pseudopotential
     Al               11.00    26.98000     Al( 1.00)
     Cu               19.00    63.55000     Cu( 1.00)
     Mg               10.00    24.31000     Mg( 1.00)
     C                 4.00    12.01100     C ( 1.00)
     N                 5.00    14.00700     N ( 1.00)
     H                 1.00     1.00800     H ( 1.00)

     No symmetry found


                                    s                        frac. trans.

      isym =  1     identity                                     

 cryst.   s( 1) = (     1          0          0      )
                  (     0          1          0      )
                  (     0          0          1      )

 cart.    s( 1) = (  1.0000000  0.0000000  0.0000000 )
                  (  0.0000000  1.0000000  0.0000000 )
                  (  0.0000000  0.0000000  1.0000000 )


     point group C_1 (1)    
     there are  1 classes
     the character table:

       E    
A      1.00

     the symmetry operations in each class and the name of the first element:

     E        1
          identity                                               

   Cartesian axes

     site n.     atom                  positions (alat units)
         1        H      tau(   1) = (   0.6099630   0.5347033   1.3204708  )
         2        H      tau(   2) = (   0.4079099   0.3001930   1.3207996  )
         3        C      tau(   3) = (   0.5664536   0.4851577   1.2007616  )
         4        C      tau(   4) = (   0.4506093   0.3508650   1.2008888  )
         5        H      tau(   5) = (   0.7173930   0.6589045   1.0544888  )
         6        C      tau(   6) = (   0.6272821   0.5559215   1.0524680  )
         7        C      tau(   7) = (   0.3903446   0.2821000   1.0524781  )
         8        H      tau(   8) = (   0.3009486   0.1787739   1.0509634  )
         9        C      tau(   9) = (   0.5668457   0.4866414   0.9027596  )
        10        C      tau(  10) = (   0.4493595   0.3517223   0.9010999  )
        11        N      tau(  11) = (   0.5949710   0.5189341   0.7369906  )
        12        N      tau(  12) = (   0.4123848   0.3106042   0.7389972  )
        13        H      tau(  13) = (   0.6658998   0.6081606   0.6782425  )
        14        N      tau(  14) = (   0.5000829   0.4115127   0.6414327  )
        15        Al     tau(  15) = (   0.2516779   0.9719687   0.3740839  )
        16        Al     tau(  16) = (   0.7482074   0.9638910   0.3771161  )
        17        Al     tau(  17) = (  -0.0005879   0.3906308   0.3751941  )
        18        Al     tau(  18) = (   0.4987768   0.3817535   0.3929928  )
        19        Mg     tau(  19) = (   0.7493771   0.6435619   0.2318899  )
        20        Mg     tau(  20) = (   0.2498396   0.6446246   0.2354190  )
        21        Mg     tau(  21) = (  -0.0025956   0.0684280   0.2339675  )
        22        Mg     tau(  22) = (   0.5012229   0.0669044   0.2365088  )
        23        Cu     tau(  23) = (   0.4993572   0.8872473   0.2322607  )
        24        Cu     tau(  24) = (   0.0003804   0.8953477   0.2291321  )
        25        Cu     tau(  25) = (   0.2525775   0.3133224   0.2319142  )
        26        Cu     tau(  26) = (   0.7458676   0.3146327   0.2301882  )
        27        Al     tau(  27) = (   0.7470827   0.9891480   0.0475244  )
        28        Al     tau(  28) = (   0.2519616   0.9892538   0.0447145  )
        29        Al     tau(  29) = (   0.0009173   0.4119666   0.0469863  )
        30        Al     tau(  30) = (   0.4986682   0.4143908   0.0529768  )
        31        Al     tau(  31) = (   0.4986639   0.7420395  -0.0530339  )
        32        Al     tau(  32) = (   0.0008745   0.7443968  -0.0471988  )
        33        Al     tau(  33) = (   0.2519992   0.1670526  -0.0446293  )
        34        Al     tau(  34) = (   0.7471478   0.1671254  -0.0472814  )
        35        Cu     tau(  35) = (   0.2524138   0.8430499  -0.2318941  )
        36        Cu     tau(  36) = (   0.7458264   0.8417712  -0.2302461  )
        37        Cu     tau(  37) = (   0.0004174   0.2608898  -0.2291488  )
        38        Cu     tau(  38) = (   0.4993830   0.2690472  -0.2320250  )
        39        Mg     tau(  39) = (   0.5011501   1.0894954  -0.2362475  )
        40        Mg     tau(  40) = (  -0.0025602   1.0878714  -0.2339189  )
        41        Mg     tau(  41) = (   0.7493012   0.5127797  -0.2319409  )
        42        Mg     tau(  42) = (   0.2499640   0.5117421  -0.2356527  )
        43        Al     tau(  43) = (   0.4985082   0.7748953  -0.3930305  )
        44        Al     tau(  44) = (  -0.0005966   0.7656496  -0.3754729  )
        45        Al     tau(  45) = (   0.7481414   0.1922970  -0.3768413  )
        46        Al     tau(  46) = (   0.2518154   0.1843942  -0.3740158  )
        47        N      tau(  47) = (   0.5001183   0.7451943  -0.6414400  )
        48        H      tau(  48) = (   0.6807686   0.5621030  -0.6782757  )
        49        N      tau(  49) = (   0.4051360   0.8392667  -0.7390581  )
        50        N      tau(  50) = (   0.6025265   0.6448793  -0.7369862  )
        51        C      tau(  51) = (   0.4450569   0.8008991  -0.9011449  )
        52        C      tau(  52) = (   0.5721600   0.6750056  -0.9027756  )
        53        H      tau(  53) = (   0.2847058   0.9627269  -1.0511375  )
        54        C      tau(  54) = (   0.3812814   0.8660808  -1.0525670  )
        55        C      tau(  55) = (   0.6376093   0.6103172  -1.0524136  )
        56        H      tau(  56) = (   0.7350360   0.5142231  -1.0543576  )
        57        C      tau(  57) = (   0.4465816   0.8019657  -1.2009338  )
        58        C      tau(  58) = (   0.5718941   0.6764687  -1.2007495  )
        59        H      tau(  59) = (   0.4005231   0.8495468  -1.3208684  )
        60        H      tau(  60) = (   0.6190364   0.6302745  -1.3204251  )

   Crystallographic axes

     site n.     atom                  positions (cryst. coord.)
         1        H      tau(   1) = (  0.6099630  0.4623463  0.2779938  )
         2        H      tau(   2) = (  0.4079099  0.2595703  0.2780631  )
         3        C      tau(   3) = (  0.5664536  0.4195053  0.2527919  )
         4        C      tau(   4) = (  0.4506093  0.3033853  0.2528187  )
         5        H      tau(   5) = (  0.7173930  0.5697404  0.2219976  )
         6        C      tau(   6) = (  0.6272821  0.4806932  0.2215722  )
         7        C      tau(   7) = (  0.3903446  0.2439258  0.2215743  )
         8        H      tau(   8) = (  0.3009486  0.1545819  0.2212555  )
         9        C      tau(   9) = (  0.5668457  0.4207882  0.1900547  )
        10        C      tau(  10) = (  0.4493595  0.3041266  0.1897053  )
        11        N      tau(  11) = (  0.5949710  0.4487110  0.1551559  )
        12        N      tau(  12) = (  0.4123848  0.2685727  0.1555783  )
        13        H      tau(  13) = (  0.6658998  0.5258633  0.1427879  )
        14        N      tau(  14) = (  0.5000829  0.3558261  0.1350385  )
        15        Al     tau(  15) = (  0.2516779  0.8404402  0.0787545  )
        16        Al     tau(  16) = (  0.7482074  0.8334556  0.0793929  )
        17        Al     tau(  17) = ( -0.0005879  0.3377700  0.0789882  )
        18        Al     tau(  18) = (  0.4987768  0.3300940  0.0827353  )
        19        Mg     tau(  19) = (  0.7493771  0.5564740  0.0488189  )
        20        Mg     tau(  20) = (  0.2498396  0.5573929  0.0495619  )
        21        Mg     tau(  21) = ( -0.0025956  0.0591682  0.0492563  )
        22        Mg     tau(  22) = (  0.5012229  0.0578508  0.0497913  )
        23        Cu     tau(  23) = (  0.4993572  0.7671834  0.0488970  )
        24        Cu     tau(  24) = (  0.0003804  0.7741877  0.0482383  )
        25        Cu     tau(  25) = (  0.2525775  0.2709231  0.0488240  )
        26        Cu     tau(  26) = (  0.7458676  0.2720561  0.0484607  )
        27        Al     tau(  27) = (  0.7470827  0.8552947  0.0100051  )
        28        Al     tau(  28) = (  0.2519616  0.8553862  0.0094136  )
        29        Al     tau(  29) = (  0.0009173  0.3562186  0.0098918  )
        30        Al     tau(  30) = (  0.4986682  0.3583147  0.0111530  )
        31        Al     tau(  31) = (  0.4986639  0.6416254 -0.0111650  )
        32        Al     tau(  32) = (  0.0008745  0.6436638 -0.0099366  )
        33        Al     tau(  33) = (  0.2519992  0.1444467 -0.0093956  )
        34        Al     tau(  34) = (  0.7471478  0.1445097 -0.0099540  )
        35        Cu     tau(  35) = (  0.2524138  0.7289670 -0.0488198  )
        36        Cu     tau(  36) = (  0.7458264  0.7278612 -0.0484729  )
        37        Cu     tau(  37) = (  0.0004174  0.2255857 -0.0482419  )
        38        Cu     tau(  38) = (  0.4993830  0.2326393 -0.0488474  )
        39        Mg     tau(  39) = (  0.5011501  0.9420629 -0.0497363  )
        40        Mg     tau(  40) = ( -0.0025602  0.9406587 -0.0492461  )
        41        Mg     tau(  41) = (  0.7493012  0.4433895 -0.0488297  )
        42        Mg     tau(  42) = (  0.2499640  0.4424923 -0.0496111  )
        43        Al     tau(  43) = (  0.4985082  0.6700351 -0.0827433  )
        44        Al     tau(  44) = ( -0.0005966  0.6620406 -0.0790469  )
        45        Al     tau(  45) = (  0.7481414  0.1662750 -0.0793350  )
        46        Al     tau(  46) = (  0.2518154  0.1594417 -0.0787402  )
        47        N      tau(  47) = (  0.5001183  0.6443533 -0.1350400  )
        48        H      tau(  48) = (  0.6807686  0.4860382 -0.1427949  )
        49        N      tau(  49) = (  0.4051360  0.7256957 -0.1555912  )
        50        N      tau(  50) = (  0.6025265  0.5576131 -0.1551550  )
        51        C      tau(  51) = (  0.4450569  0.6925200 -0.1897147  )
        52        C      tau(  52) = (  0.5721600  0.5836627 -0.1900580  )
        53        H      tau(  53) = (  0.2847058  0.8324490 -0.2212921  )
        54        C      tau(  54) = (  0.3812814  0.7488812 -0.2215931  )
        55        C      tau(  55) = (  0.6376093  0.5277280 -0.2215608  )
        56        H      tau(  56) = (  0.7350360  0.4446375 -0.2219700  )
        57        C      tau(  57) = (  0.4465816  0.6934423 -0.2528282  )
        58        C      tau(  58) = (  0.5718941  0.5849278 -0.2527894  )
        59        H      tau(  59) = (  0.4005231  0.7345847 -0.2780776  )
        60        H      tau(  60) = (  0.6190364  0.5449846 -0.2779842  )

     number of k points=     1  Methfessel-Paxton smearing, width (Ry)=  0.0500
                       cart. coord. in units 2pi/alat
        k(    1) = (   0.0000000   0.0000000   0.0000000), wk =   2.0000000

                       cryst. coord.
        k(    1) = (   0.0000000   0.0000000   0.0000000), wk =   2.0000000

     Dense  grid:  1081089 G-vectors     FFT dimensions: (  96, 108, 432)

     Dynamical RAM for                 wfc:      11.27 MB

     Dynamical RAM for     wfc (w. buffer):      11.27 MB

     Dynamical RAM for           str. fact:       1.55 MB

     Dynamical RAM for           local pot:       0.00 MB

     Dynamical RAM for          nlocal pot:      16.11 MB

     Dynamical RAM for                qrad:       9.14 MB

     Dynamical RAM for          rho,v,vnew:       2.44 MB

     Dynamical RAM for           G-vectors:       1.10 MB

     Dynamical RAM for          h,s,v(r/c):       0.17 MB

     Dynamical RAM for          <psi|beta>:       1.34 MB

     Dynamical RAM for      wfcinit/wfcrot:      25.35 MB

     Estimated static dynamical RAM per process >      46.17 MB

     Estimated max dynamical RAM per process >      71.53 MB

     Estimated total dynamical RAM >       4.47 GB
     Message from routine read_rhog:
     Conversion: K charge Gamma charge

     The potential is recalculated from file :
     /MgAl2Cu_2x1_C6H5N3_final/embedding/pwscf.save/charge-density

     Starting wfcs are random

     Band Structure Calculation
     CG style diagonalization

     Computing kpt #:     1  of     1
     total cpu time spent up to now is      455.5 secs

     ethr =  2.02E-10,  avg # of iterations = 70.4

     total cpu time spent up to now is      455.5 secs

     End of band structure calculation

          k = 0.0000 0.0000 0.0000 (135166 PWs)   bands (ev):

  -113.2640-113.2538-113.2322-113.2190-113.2183-113.2126-113.1827-113.1814
  -103.3905-103.3903-103.1464-103.1450-103.1418-103.1355-103.1062-103.1057
  -102.9395-102.9351-102.8873-102.8825-102.8586-102.8547-102.8537-102.8501
   -75.6732 -75.6709 -75.6538 -75.6520 -75.6341 -75.6322 -75.6160 -75.6144
   -70.6775 -70.6680 -70.6647 -70.6550 -70.6385 -70.6315 -70.6257 -70.6222
   -70.6186 -70.6166 -70.6147 -70.6092 -70.5960 -70.5949 -70.5769 -70.5758
   -70.4840 -70.4741 -70.4540 -70.4477 -70.4420 -70.4417 -70.4181 -70.4169
   -64.9357 -64.9349 -64.8571 -64.8566 -64.8440 -64.8426 -64.7039 -64.6988
   -64.6961 -64.6948 -64.6706 -64.6692 -64.6643 -64.6579 -64.6563 -64.6556
   -64.6271 -64.6264 -64.5962 -64.5947 -64.5782 -64.5717 -64.5606 -64.5606
   -64.4558 -64.4506 -64.4436 -64.4393 -64.4123 -64.4088 -64.4059 -64.4055
   -64.4022 -64.4006 -64.3919 -64.3879 -64.3848 -64.3814 -64.3776 -64.3742
   -64.3696 -64.3670 -64.3599 -64.3545 -64.3188 -64.3149 -64.3124 -64.3087
   -42.4995 -42.4970 -42.4792 -42.4774 -42.4599 -42.4579 -42.4406 -42.4389
   -42.4267 -42.4244 -42.4105 -42.4088 -42.3938 -42.3934 -42.3916 -42.3915
   -42.3754 -42.3736 -42.3729 -42.3712 -42.3584 -42.3566 -42.3396 -42.3377
   -24.4361 -24.4287 -19.6385 -19.6343 -18.3467 -18.3435 -16.2232 -16.2196
   -15.4534 -15.4502 -13.1423 -13.1409 -12.7582 -12.7580 -12.3050 -12.3006
   -10.5309 -10.5291  -9.7997  -9.7951  -8.9980  -8.6575  -8.6370  -8.5719
    -8.5510  -7.9600  -7.8961  -7.8939  -7.6267  -7.6234  -7.4624  -7.2383
    -6.9451  -6.8896  -6.8217  -6.6580  -5.8946  -5.8715  -5.8681  -5.7917
    -5.7585  -5.7209  -5.7105  -5.5922  -5.5734  -5.1426  -5.0348  -5.0211
    -4.9246  -4.9082  -4.8392  -4.7723  -4.6823  -4.2644  -4.2009  -3.8783
    -3.8628  -3.8399  -3.8312  -3.8144  -3.8013  -3.7318  -3.7226  -3.7173
    -3.7118  -3.7055  -3.6832  -3.6059  -3.6033  -3.5809  -3.5745  -3.5577
    -3.4614  -3.4432  -3.4351  -3.4214  -3.4081  -3.3872  -3.3767  -3.3596
    -3.3465  -3.3453  -3.3379  -3.3351  -3.3326  -3.3137  -3.2987  -3.2760
    -3.2482  -3.2405  -3.2175  -3.2069  -3.2022  -3.1842  -3.1804  -3.1478
    -3.0986  -2.8165  -2.7701  -2.7613  -2.7192  -2.7109  -1.9757  -1.8020
    -1.7755  -1.7219  -1.7029  -1.5825  -1.4212  -1.3739  -0.7307  -0.4390
    -0.3730  -0.3358  -0.1039  -0.1024  -0.0665   0.1324   0.2335   0.4683
     0.5819   0.6090   0.6970   0.7354   0.9090   0.9792   1.0231   1.0296
     1.1114   1.1691   1.2476   1.6256   1.7266   2.0180   2.1695   2.2414
     2.2925   2.3310   2.4977   2.5227   2.6131   2.6561   2.7242   2.7783
     2.9184   3.1039   3.1131   3.1462   3.1735   3.1814   3.2073   3.2148
     3.2797   3.3958   3.4173   3.5526   3.6196   3.6276   3.7560   3.7709
     3.8385   3.9911   4.0319   4.1556   4.1785   4.2019   4.2764   4.2898
     4.3210   4.4515   4.5319   4.5998   4.6591   4.6751   4.7129   4.7763
     4.7909   4.8240   4.8325   4.8644   4.9311   4.9970   5.0457   5.0891
     5.1448   5.1811   5.2370   5.3104   5.3296   5.3389   5.4390   5.4401
     5.5759   5.5896   5.5956   5.6203   5.6336   5.6945   5.7811   5.8012
     5.8343   5.9034   5.9676   5.9884   5.9938   6.0263   6.0780   6.1082
     6.1909   6.2065   6.2324   6.2775   6.3000   6.3361   6.3638   6.3777
     6.4077   6.4679   6.5200   6.5347   6.5497   6.5699

     occupation numbers 
     1.0000   1.0000   1.0000   1.0000   1.0000   1.0000   1.0000   1.0000
     1.0000   1.0000   1.0000   1.0000   1.0000   1.0000   1.0000   1.0000
     1.0000   1.0000   1.0000   1.0000   1.0000   1.0000   1.0000   1.0000
     1.0000   1.0000   1.0000   1.0000   1.0000   1.0000   1.0000   1.0000
     1.0000   1.0000   1.0000   1.0000   1.0000   1.0000   1.0000   1.0000
     1.0000   1.0000   1.0000   1.0000   1.0000   1.0000   1.0000   1.0000
     1.0000   1.0000   1.0000   1.0000   1.0000   1.0000   1.0000   1.0000
     1.0000   1.0000   1.0000   1.0000   1.0000   1.0000   1.0000   1.0000
     1.0000   1.0000   1.0000   1.0000   1.0000   1.0000   1.0000   1.0000
     1.0000   1.0000   1.0000   1.0000   1.0000   1.0000   1.0000   1.0000
     1.0000   1.0000   1.0000   1.0000   1.0000   1.0000   1.0000   1.0000
     1.0000   1.0000   1.0000   1.0000   1.0000   1.0000   1.0000   1.0000
     1.0000   1.0000   1.0000   1.0000   1.0000   1.0000   1.0000   1.0000
     1.0000   1.0000   1.0000   1.0000   1.0000   1.0000   1.0000   1.0000
     1.0000   1.0000   1.0000   1.0000   1.0000   1.0000   1.0000   1.0000
     1.0000   1.0000   1.0000   1.0000   1.0000   1.0000   1.0000   1.0000
     1.0000   1.0000   1.0000   1.0000   1.0000   1.0000   1.0000   1.0000
     1.0000   1.0000   1.0000   1.0000   1.0000   1.0000   1.0000   1.0000
     1.0000   1.0000   1.0000   1.0000   1.0000   1.0000   1.0000   1.0000
     1.0000   1.0000   1.0000   1.0000   1.0000   1.0000   1.0000   1.0000
     1.0000   1.0000   1.0000   1.0000   1.0000   1.0000   1.0000   1.0000
     1.0000   1.0000   1.0000   1.0000   1.0000   1.0000   1.0000   1.0000
     1.0000   1.0000   1.0000   1.0000   1.0000   1.0000   1.0000   1.0000
     1.0000   1.0000   1.0000   1.0000   1.0000   1.0000   1.0000   1.0000
     1.0000   1.0000   1.0000   1.0000   1.0000   1.0000   1.0000   1.0000
     1.0000   1.0000   1.0000   1.0000   1.0000   1.0000   1.0000   1.0000
     1.0000   1.0000   1.0000   1.0000   1.0000   1.0000   1.0000   1.0000
     1.0000   1.0000   1.0000   1.0000   1.0000   1.0000   1.0000   1.0000
     1.0000   1.0000   1.0000   1.0000   1.0000   1.0000   1.0000   1.0000
     1.0000   1.0000   1.0000   1.0001   1.0004   1.0006   1.0180   1.0349
     1.0352   1.0340   0.9880   0.9875   0.9723   0.8384   0.7390   0.4587
     0.3220   0.2913   0.1994   0.1638   0.0413   0.0100  -0.0047  -0.0066
    -0.0245  -0.0315  -0.0353  -0.0164  -0.0109  -0.0024  -0.0009  -0.0006
    -0.0004  -0.0003  -0.0001  -0.0001  -0.0000  -0.0000  -0.0000  -0.0000
    -0.0000  -0.0000  -0.0000  -0.0000  -0.0000  -0.0000  -0.0000  -0.0000
    -0.0000  -0.0000  -0.0000  -0.0000  -0.0000  -0.0000  -0.0000  -0.0000
    -0.0000  -0.0000  -0.0000  -0.0000  -0.0000  -0.0000  -0.0000  -0.0000
    -0.0000  -0.0000  -0.0000  -0.0000  -0.0000  -0.0000  -0.0000  -0.0000
    -0.0000  -0.0000  -0.0000  -0.0000  -0.0000  -0.0000  -0.0000  -0.0000
    -0.0000  -0.0000  -0.0000  -0.0000  -0.0000  -0.0000  -0.0000  -0.0000
    -0.0000  -0.0000  -0.0000  -0.0000  -0.0000  -0.0000  -0.0000  -0.0000
    -0.0000  -0.0000  -0.0000  -0.0000  -0.0000  -0.0000  -0.0000  -0.0000
    -0.0000  -0.0000  -0.0000  -0.0000  -0.0000  -0.0000  -0.0000  -0.0000
    -0.0000  -0.0000  -0.0000  -0.0000  -0.0000  -0.0000

     the Fermi energy is     0.4351 ev
     (compare with:     0.2476 eV, computed in scf)

     Writing all to output data dir /MgAl2Cu_2x1_C6H5N3_final/embedding/pwscf.save/ :
     XML data file, pseudopotentials, collected wavefunctions
 
     init_run     :      0.39s CPU      3.03s WALL (       1 calls)
     electrons    :    450.43s CPU    452.10s WALL (       1 calls)

     Called by init_run:
     wfcinit      :      0.00s CPU      0.12s WALL (       1 calls)
     wfcinit:wfcr :      0.82s CPU      0.83s WALL (       1 calls)
     potinit      :      0.08s CPU      2.58s WALL (       1 calls)
     hinit0       :      0.04s CPU      0.05s WALL (       1 calls)

     Called by electrons:
     c_bands      :    450.43s CPU    452.04s WALL (       1 calls)
     v_of_rho     :      0.04s CPU      0.05s WALL (       1 calls)
     v_h          :      0.00s CPU      0.00s WALL (       1 calls)
     v_xc         :      0.04s CPU      0.04s WALL (       1 calls)

     Called by c_bands:
     init_us_2    :      0.01s CPU      0.02s WALL (       1 calls)
     init_us_2:cp :      0.01s CPU      0.02s WALL (       1 calls)
     rcgdiagg     :    445.55s CPU    446.96s WALL (       6 calls)
     wfcrot       :      4.85s CPU      4.89s WALL (       6 calls)

     Called by sum_band:

     Called by *cgdiagg:
     h_psi        :    308.24s CPU    309.24s WALL (   22144 calls)

     Called by h_psi:
     h_psi:calbec :     97.06s CPU     97.39s WALL (   22144 calls)
     vloc_psi     :    129.34s CPU    129.78s WALL (   22144 calls)
     add_vuspsi   :     81.34s CPU     81.63s WALL (   22144 calls)
     hs_1psi      :    304.64s CPU    305.61s WALL (   22138 calls)
     s_1psi       :     81.58s CPU     81.77s WALL (   22138 calls)

     General routines
     calbec       :    178.05s CPU    178.84s WALL (   44282 calls)
     fft          :      0.03s CPU      0.04s WALL (       8 calls)
     fftw         :    117.52s CPU    117.88s WALL (   46376 calls)
     davcio       :      0.00s CPU      0.20s WALL (       2 calls)
 
     Parallel routines
 
     PWSCF        :   7m31.78s CPU   7m37.05s WALL

 
   This run was terminated on:  17: 7:53  29Oct2024            

=------------------------------------------------------------------------------=
   JOB DONE.
=------------------------------------------------------------------------------=
