
     Program PWSCF v.6.5 starts on 27Sep2024 at 17:48:43 

     This program is part of the open-source Quantum ESPRESSO suite
     for quantum simulation of materials; please cite
         "P. Giannozzi et al., J. Phys.:Condens. Matter 21 395502 (2009);
         "P. Giannozzi et al., J. Phys.:Condens. Matter 29 465901 (2017);
          URL http://www.quantum-espresso.org", 
     in publications or presentations arising from this work. More details at
     http://www.quantum-espresso.org/quote

     Parallel version (MPI), running on    96 processors

     MPI processes distributed on     2 nodes
     R & G space division:  proc/nbgrp/npool/nimage =      96
     Reading input from benzotriazole_mod_scf.in
Warning: card &IONS ignored
Warning: card / ignored

     Current dimensions of program PWSCF are:
     Max number of different atomic species (ntypx) = 10
     Max number of k-points (npk) =  40000
     Max angular momentum in pseudopotentials (lmaxx) =  3
               file C.pbe-n-kjpaw_psl.1.0.0.UPF: wavefunction(s)  2S 2P renormalized

     gamma-point specific algorithms are used

     Subspace diagonalization in iterative solution of the eigenvalue problem:
     one sub-group per band group will be used
     scalapack distributed-memory algorithm (size of sub-group:  9*  9 procs)


     Parallelization info
     --------------------
     sticks:   dense  smooth     PW     G-vecs:    dense   smooth      PW
     Min         954     476    118               217486    76888    9598
     Max         956     478    120               217496    76910    9616
     Sum       91633   45813  11449             20878949  7382341  922329


     Title: 
     benzotriazole_mod_scf                                                      


     bravais-lattice index     =            1
     lattice parameter (alat)  =      40.0000  a.u.
     unit-cell volume          =   64000.0000 (a.u.)^3
     number of atoms/cell      =           14
     number of atomic types    =            3
     number of electrons       =        44.00
     number of Kohn-Sham states=           36
     kinetic-energy cutoff     =      90.0000  Ry
     charge density cutoff     =     720.0000  Ry
     convergence threshold     =      1.0E-06
     mixing beta               =       0.7000
     number of iterations used =            8  plain     mixing
     Exchange-correlation= PBE
                           (   1   4   3   4   0   0   0)

     celldm(1)=  40.000000  celldm(2)=   0.000000  celldm(3)=   0.000000
     celldm(4)=   0.000000  celldm(5)=   0.000000  celldm(6)=   0.000000

     crystal axes: (cart. coord. in units of alat)
               a(1) = (   1.000000   0.000000   0.000000 )  
               a(2) = (   0.000000   1.000000   0.000000 )  
               a(3) = (   0.000000   0.000000   1.000000 )  

     reciprocal axes: (cart. coord. in units 2 pi/alat)
               b(1) = (  1.000000  0.000000  0.000000 )  
               b(2) = (  0.000000  1.000000  0.000000 )  
               b(3) = (  0.000000  0.000000  1.000000 )  


     PseudoPot. # 1 for C  read from file:
     /pseudo/C.pbe-n-kjpaw_psl.1.0.0.UPF
     MD5 check sum: 5d2aebdfa2cae82b50a7e79e9516da0f
     Pseudo is Projector augmented-wave + core cor, Zval =  4.0
     Generated using "atomic" code by A. Dal Corso v.5.1
     Shape of augmentation charge: PSQ
     Using radial grid of 1073 points,  4 beta functions with: 
                l(1) =   0
                l(2) =   0
                l(3) =   1
                l(4) =   1
     Q(r) pseudized with 0 coefficients 


     PseudoPot. # 2 for N  read from file:
     /pseudo/N.pbe-n-radius_5.UPF
     MD5 check sum: 16739722b17309cd8fe442a2ace49922
     Pseudo is Ultrasoft + core correction, Zval =  5.0
     Generated using "atomic" code by A. Dal Corso v.5.1
     Using radial grid of 1085 points,  4 beta functions with: 
                l(1) =   0
                l(2) =   0
                l(3) =   1
                l(4) =   1
     Q(r) pseudized with 0 coefficients 


     PseudoPot. # 3 for H  read from file:
     /pseudo/H.pbe-rrkjus_psl.1.0.0.UPF
     MD5 check sum: f52b6d4d1c606e5624b1dc7b2218f220
     Pseudo is Ultrasoft, Zval =  1.0
     Generated using "atomic" code by A. Dal Corso v.5.1
     Using radial grid of  929 points,  2 beta functions with: 
                l(1) =   0
                l(2) =   0
     Q(r) pseudized with 0 coefficients 


     atomic species   valence    mass     pseudopotential
        C              4.00    12.01100     C ( 1.00)
        N              5.00    14.00700     N ( 1.00)
        H              1.00     1.00800     H ( 1.00)

     No symmetry found


                                    s                        frac. trans.

      isym =  1     identity                                     

 cryst.   s( 1) = (     1          0          0      )
                  (     0          1          0      )
                  (     0          0          1      )

 cart.    s( 1) = (  1.0000000  0.0000000  0.0000000 )
                  (  0.0000000  1.0000000  0.0000000 )
                  (  0.0000000  0.0000000  1.0000000 )


     point group C_1 (1)    
     there are  1 classes
     the character table:

       E    
A      1.00

     the symmetry operations in each class and the name of the first element:

     E        1
          identity                                               

   Cartesian axes

     site n.     atom                  positions (alat units)
         1           N   tau(   1) = (   0.1758120   0.3041945   0.4114748  )
         2           N   tau(   2) = (   0.1411335   0.2640910   0.3747827  )
         3           N   tau(   3) = (   0.1089754   0.2268993   0.4114249  )
         4           C   tau(   4) = (   0.1659135   0.2928013   0.5860790  )
         5           C   tau(   5) = (   0.1221922   0.2422133   0.5860707  )
         6           C   tau(   6) = (   0.0997885   0.2162765   0.5302178  )
         7           C   tau(   7) = (   0.1222295   0.2422281   0.4734849  )
         8           C   tau(   8) = (   0.1659369   0.2927803   0.4741209  )
         9           C   tau(   9) = (   0.1887252   0.3191633   0.5304410  )
        10           H   tau(  10) = (   0.2039755   0.3367694   0.3902301  )
        11           H   tau(  11) = (   0.1820897   0.3115442   0.6313320  )
        12           H   tau(  12) = (   0.1059401   0.2234181   0.6312912  )
        13           H   tau(  13) = (   0.0660832   0.1772754   0.5297640  )
        14           H   tau(  14) = (   0.2224504   0.3581778   0.5308140  )

   Crystallographic axes

     site n.     atom                  positions (cryst. coord.)
         1           N   tau(   1) = (  0.1758120  0.3041945  0.4114748  )
         2           N   tau(   2) = (  0.1411335  0.2640910  0.3747827  )
         3           N   tau(   3) = (  0.1089754  0.2268993  0.4114249  )
         4           C   tau(   4) = (  0.1659135  0.2928013  0.5860790  )
         5           C   tau(   5) = (  0.1221922  0.2422133  0.5860707  )
         6           C   tau(   6) = (  0.0997885  0.2162765  0.5302178  )
         7           C   tau(   7) = (  0.1222295  0.2422281  0.4734849  )
         8           C   tau(   8) = (  0.1659369  0.2927803  0.4741209  )
         9           C   tau(   9) = (  0.1887252  0.3191633  0.5304410  )
        10           H   tau(  10) = (  0.2039755  0.3367694  0.3902301  )
        11           H   tau(  11) = (  0.1820897  0.3115442  0.6313320  )
        12           H   tau(  12) = (  0.1059401  0.2234181  0.6312912  )
        13           H   tau(  13) = (  0.0660832  0.1772754  0.5297640  )
        14           H   tau(  14) = (  0.2224504  0.3581778  0.5308140  )

     number of k points=     1  Methfessel-Paxton smearing, width (Ry)=  0.0500
                       cart. coord. in units 2pi/alat
        k(    1) = (   0.0000000   0.0000000   0.0000000), wk =   2.0000000

                       cryst. coord.
        k(    1) = (   0.0000000   0.0000000   0.0000000), wk =   2.0000000

     Dense  grid: 10439475 G-vectors     FFT dimensions: ( 360, 360, 360)

     Smooth grid:  3691171 G-vectors     FFT dimensions: ( 243, 243, 243)

     Dynamical RAM for                 wfc:       2.64 MB

     Dynamical RAM for     wfc (w. buffer):       2.64 MB

     Dynamical RAM for           str. fact:       4.98 MB

     Dynamical RAM for           local pot:       0.00 MB

     Dynamical RAM for          nlocal pot:       6.01 MB

     Dynamical RAM for                qrad:      11.73 MB

     Dynamical RAM for          rho,v,vnew:      16.84 MB

     Dynamical RAM for               rhoin:       5.61 MB

     Dynamical RAM for            rho*nmix:      26.55 MB

     Dynamical RAM for           G-vectors:       6.52 MB

     Dynamical RAM for          h,s,v(r/c):       0.01 MB

     Dynamical RAM for          <psi|beta>:       0.02 MB

     Dynamical RAM for                 psi:      10.56 MB

     Dynamical RAM for                hpsi:      10.56 MB

     Dynamical RAM for                spsi:      10.56 MB

     Dynamical RAM for      wfcinit/wfcrot:       6.05 MB

     Dynamical RAM for           addusdens:      81.31 MB

     Estimated static dynamical RAM per process >     107.30 MB

     Estimated max dynamical RAM per process >     188.60 MB

     Estimated total dynamical RAM >      17.68 GB

     Initial potential from superposition of free atoms

     starting charge   43.99968, renormalised to   44.00000

     negative rho (up, down):  8.273E-04 0.000E+00
     Starting wfcs are   41 randomized atomic wfcs
     Checking if some PAW data can be deallocated... 
       PAW data deallocated on   54 nodes for type:  1

     total cpu time spent up to now is       23.8 secs

     Self-consistent Calculation

     iteration #  1     ecut=    90.00 Ry     beta= 0.70
     Davidson diagonalization with overlap
     ethr =  1.00E-02,  avg # of iterations =  8.0

     negative rho (up, down):  1.070E-03 0.000E+00

     total cpu time spent up to now is      204.5 secs

     total energy              =    -176.57616513 Ry
     Harris-Foulkes estimate   =    -177.56247862 Ry
     estimated scf accuracy    <       1.50459238 Ry

     iteration #  2     ecut=    90.00 Ry     beta= 0.70
     Davidson diagonalization with overlap
     ethr =  3.42E-03,  avg # of iterations =  7.0

     negative rho (up, down):  1.117E-03 0.000E+00

     total cpu time spent up to now is      360.6 secs

     total energy              =    -176.77853682 Ry
     Harris-Foulkes estimate   =    -177.12707893 Ry
     estimated scf accuracy    <       0.58155426 Ry

     iteration #  3     ecut=    90.00 Ry     beta= 0.70
     Davidson diagonalization with overlap
     ethr =  1.32E-03,  avg # of iterations =  5.0

     negative rho (up, down):  1.200E-03 0.000E+00

     total cpu time spent up to now is      468.5 secs

     total energy              =    -176.90937124 Ry
     Harris-Foulkes estimate   =    -177.03205601 Ry
     estimated scf accuracy    <       0.28161759 Ry

     iteration #  4     ecut=    90.00 Ry     beta= 0.70
     Davidson diagonalization with overlap
     ethr =  6.40E-04,  avg # of iterations =  4.0

     negative rho (up, down):  1.250E-03 0.000E+00

     total cpu time spent up to now is      535.4 secs

     total energy              =    -176.96533322 Ry
     Harris-Foulkes estimate   =    -176.97411594 Ry
     estimated scf accuracy    <       0.01813218 Ry

     iteration #  5     ecut=    90.00 Ry     beta= 0.70
     Davidson diagonalization with overlap
     ethr =  4.12E-05,  avg # of iterations = 20.0

     negative rho (up, down):  1.275E-03 0.000E+00

     total cpu time spent up to now is      882.1 secs

     total energy              =    -176.97433611 Ry
     Harris-Foulkes estimate   =    -176.97777885 Ry
     estimated scf accuracy    <       0.00862508 Ry

     iteration #  6     ecut=    90.00 Ry     beta= 0.70
     Davidson diagonalization with overlap
     ethr =  1.96E-05,  avg # of iterations =  3.0

     negative rho (up, down):  1.294E-03 0.000E+00

     total cpu time spent up to now is      939.3 secs

     total energy              =    -176.97536988 Ry
     Harris-Foulkes estimate   =    -176.97559471 Ry
     estimated scf accuracy    <       0.00054598 Ry

     iteration #  7     ecut=    90.00 Ry     beta= 0.70
     Davidson diagonalization with overlap
     ethr =  1.24E-06,  avg # of iterations = 20.0

     negative rho (up, down):  1.309E-03 0.000E+00

     total cpu time spent up to now is     1259.9 secs

     total energy              =    -176.97555894 Ry
     Harris-Foulkes estimate   =    -176.97563652 Ry
     estimated scf accuracy    <       0.00016444 Ry

     iteration #  8     ecut=    90.00 Ry     beta= 0.70
     Davidson diagonalization with overlap
     ethr =  3.74E-07,  avg # of iterations =  2.0

     negative rho (up, down):  1.316E-03 0.000E+00

     total cpu time spent up to now is     1323.6 secs

     total energy              =    -176.97558966 Ry
     Harris-Foulkes estimate   =    -176.97559980 Ry
     estimated scf accuracy    <       0.00002103 Ry

     iteration #  9     ecut=    90.00 Ry     beta= 0.70
     Davidson diagonalization with overlap
     ethr =  4.78E-08,  avg # of iterations =  3.0

     negative rho (up, down):  1.318E-03 0.000E+00

     total cpu time spent up to now is     1404.1 secs

     total energy              =    -176.97559436 Ry
     Harris-Foulkes estimate   =    -176.97559806 Ry
     estimated scf accuracy    <       0.00000796 Ry

     iteration # 10     ecut=    90.00 Ry     beta= 0.70
     Davidson diagonalization with overlap
     ethr =  1.81E-08,  avg # of iterations =  3.0

     negative rho (up, down):  1.319E-03 0.000E+00

     total cpu time spent up to now is     1472.9 secs

     End of self-consistent calculation

          k = 0.0000 0.0000 0.0000 (461165 PWs)   bands (ev):

   -27.5095 -22.6934 -21.6428 -19.3370 -18.8199 -16.2135 -15.9711 -15.4299
   -13.7472 -12.9649 -11.6602 -11.5622 -11.1438 -10.9645  -9.2203  -8.9731
    -8.9688  -8.0480  -7.9277  -6.4192  -6.3151  -6.0847  -2.2349  -0.9697
    -0.6753  -0.5165  -0.3369  -0.0025   0.0466   0.1813   0.2160   0.2617
     0.3366   0.3860   0.3915   0.4651

     occupation numbers 
     1.0000   1.0000   1.0000   1.0000   1.0000   1.0000   1.0000   1.0000
     1.0000   1.0000   1.0000   1.0000   1.0000   1.0000   1.0000   1.0000
     1.0000   1.0000   1.0000   1.0000   1.0000   1.0000   0.0005  -0.0005
    -0.0000  -0.0000  -0.0000  -0.0000  -0.0000  -0.0000  -0.0000  -0.0000
    -0.0000  -0.0000  -0.0000  -0.0000

     the Fermi energy is    -2.8061 ev

!    total energy              =    -176.97559572 Ry
     Harris-Foulkes estimate   =    -176.97559605 Ry
     estimated scf accuracy    <       0.00000041 Ry

     The total energy is the sum of the following terms:

     one-electron contribution =    -734.21363480 Ry
     hartree contribution      =     372.25102037 Ry
     xc contribution           =     -47.41036207 Ry
     ewald contribution        =     269.39969057 Ry
     one-center paw contrib.   =     -37.00531571 Ry
      -> PAW hartree energy AE =       0.00000000 Ry
      -> PAW hartree energy PS =       0.00000000 Ry
      -> PAW xc energy AE      =       0.00000000 Ry
      -> PAW xc energy PS      =       0.00000000 Ry
      -> total E_H with PAW    =     372.25102037 Ry
      -> total E_XC with PAW   =     -47.41036207 Ry
     smearing contrib. (-TS)   =       0.00300592 Ry

     convergence has been achieved in  10 iterations

     Writing output data file /benzotriazole/scf.save/

     init_run     :     20.91s CPU     22.17s WALL (       1 calls)
     electrons    :   1318.75s CPU   1449.64s WALL (       1 calls)

     Called by init_run:
     wfcinit      :      7.19s CPU      7.61s WALL (       1 calls)
     wfcinit:atom :      0.00s CPU      0.00s WALL (       1 calls)
     wfcinit:wfcr :      7.17s CPU      7.44s WALL (       1 calls)
     potinit      :      3.21s CPU      3.60s WALL (       1 calls)
     hinit0       :      3.78s CPU      3.94s WALL (       1 calls)

     Called by electrons:
     c_bands      :   1257.13s CPU   1375.77s WALL (      10 calls)
     sum_band     :     18.79s CPU     26.41s WALL (      10 calls)
     v_of_rho     :     17.48s CPU     20.78s WALL (      11 calls)
     v_h          :      2.82s CPU      3.48s WALL (      11 calls)
     v_xc         :     14.66s CPU     17.30s WALL (      11 calls)
     newd         :      5.77s CPU      6.34s WALL (      11 calls)
     PAW_pot      :      0.71s CPU      0.71s WALL (      11 calls)
     mix_rho      :     16.99s CPU     17.06s WALL (      10 calls)

     Called by c_bands:
     init_us_2    :      0.05s CPU      0.07s WALL (      21 calls)
     regterg      :   1255.69s CPU   1373.79s WALL (      10 calls)

     Called by sum_band:
     sum_band:bec :      0.00s CPU      0.00s WALL (      10 calls)
     addusdens    :      6.69s CPU     11.33s WALL (      10 calls)

     Called by *egterg:
     h_psi        :     63.50s CPU     83.83s WALL (      86 calls)
     s_psi        :     15.71s CPU     17.57s WALL (      86 calls)
     g_psi        :      0.06s CPU      0.04s WALL (      75 calls)
     rdiaghg      :    719.70s CPU    591.09s WALL (      85 calls)
     regterg:over :     31.74s CPU     33.19s WALL (      75 calls)
     regterg:upda :    252.50s CPU    370.69s WALL (      75 calls)
     regterg:last :    166.95s CPU    270.59s WALL (      12 calls)
     rdiaghg:chol :      0.24s CPU      0.25s WALL (      85 calls)
     rdiaghg:inve :    133.52s CPU     42.10s WALL (      85 calls)
     rdiaghg:para :     33.46s CPU     31.75s WALL (     170 calls)

     Called by h_psi:
     h_psi:calbec :     30.53s CPU     30.60s WALL (      86 calls)
     vloc_psi     :     20.60s CPU     24.86s WALL (      86 calls)
     add_vuspsi   :     12.32s CPU     28.29s WALL (      86 calls)

     General routines
     calbec       :     33.73s CPU     33.66s WALL (      96 calls)
     fft          :     31.19s CPU     37.10s WALL (     119 calls)
     ffts         :      1.03s CPU      1.24s WALL (      21 calls)
     fftw         :     21.99s CPU     26.89s WALL (    1390 calls)
     interpolate  :      3.54s CPU      4.17s WALL (      11 calls)

     Parallel routines
     fft_scatt_xy :      1.23s CPU      1.74s WALL (    1530 calls)
     fft_scatt_yz :     46.11s CPU     54.96s WALL (    1530 calls)

     PAW routines
     PAW_pot      :      0.71s CPU      0.71s WALL (      11 calls)

     PWSCF        :  22m21.56s CPU  24m35.85s WALL


   This run was terminated on:  18:13:19  27Sep2024            

=------------------------------------------------------------------------------=
   JOB DONE.
=------------------------------------------------------------------------------=

===================================================================================
=   BAD TERMINATION OF ONE OF YOUR APPLICATION PROCESSES
=   PID 49637 RUNNING AT b05-18
=   EXIT CODE: 6
=   CLEANING UP REMAINING PROCESSES
=   YOU CAN IGNORE THE BELOW CLEANUP MESSAGES
===================================================================================
YOUR APPLICATION TERMINATED WITH THE EXIT STRING: Aborted (signal 6)
This typically refers to a problem with your application.
Please see the FAQ page for debugging suggestions
